LAMMPS data file. CGCMM style. atom_style full generated by VMD/TopoTools v1.8 on Fri Apr 28 20:36:41 +0530 2023
 2700 atoms
 1800 bonds
 900 angles
 0 dihedrals
 0 impropers
 2 atom types
 1 bond types
 1 angle types
 0 dihedral types
 0 improper types
 -5.000000 45.000000  xlo xhi
 -5.000000 45.000000  ylo yhi
 -5.000000 45.000000  zlo zhi

 Masses

 1 12.010700 # C
 2 15.999400 # O

 Atoms # full

1 1 1 0.752000 25.309999 25.441999 13.320000 # C UNL
2 1 2 -0.376000 26.497999 25.507000 13.183000 # O UNL
3 1 2 -0.376000 24.122999 25.377001 13.457000 # O UNL
4 2 1 0.752000 10.761000 29.166000 23.177000 # C UNL
5 2 2 -0.376000 10.337000 29.966999 23.958000 # O UNL
6 2 2 -0.376000 11.185000 28.364000 22.395000 # O UNL
7 3 1 0.752000 21.207001 32.036999 12.761000 # C UNL
8 3 2 -0.376000 21.912001 32.470001 11.895000 # O UNL
9 3 2 -0.376000 20.503000 31.605000 13.627000 # O UNL
10 4 1 0.752000 39.150002 12.299000 22.323999 # C UNL
11 4 2 -0.376000 39.126999 13.463000 22.046000 # O UNL
12 4 2 -0.376000 39.173000 11.135000 22.601999 # O UNL
13 5 1 0.752000 33.963001 26.445999 22.509001 # C UNL
14 5 2 -0.376000 34.075001 26.231001 21.337000 # O UNL
15 5 2 -0.376000 33.849998 26.662001 23.681000 # O UNL
16 6 1 0.752000 20.489000 37.088001 19.164000 # C UNL
17 6 2 -0.376000 20.399000 38.023998 19.905001 # O UNL
18 6 2 -0.376000 20.579000 36.152000 18.424000 # O UNL
19 7 1 0.752000 23.224001 23.455999 17.893000 # C UNL
20 7 2 -0.376000 22.660000 22.409000 17.749001 # O UNL
21 7 2 -0.376000 23.787001 24.502001 18.037001 # O UNL
22 8 1 0.752000 14.248000 26.437000 31.868000 # C UNL
23 8 2 -0.376000 13.977000 25.284000 31.695000 # O UNL
24 8 2 -0.376000 14.519000 27.590000 32.040001 # O UNL
25 9 1 0.752000 37.349998 13.607000 4.277000 # C UNL
26 9 2 -0.376000 37.694000 14.508000 4.986000 # O UNL
27 9 2 -0.376000 37.007000 12.706000 3.568000 # O UNL
28 10 1 0.752000 15.587000 22.031000 16.127001 # C UNL
29 10 2 -0.376000 16.379999 22.927000 16.087999 # O UNL
30 10 2 -0.376000 14.795000 21.135000 16.165001 # O UNL
31 11 1 0.752000 14.584000 5.973000 38.074001 # C UNL
32 11 2 -0.376000 14.188000 4.849000 37.959999 # O UNL
33 11 2 -0.376000 14.979000 7.097000 38.187000 # O UNL
34 12 1 0.752000 1.273000 38.278000 30.266001 # C UNL
35 12 2 -0.376000 1.677000 37.210999 29.903000 # O UNL
36 12 2 -0.376000 0.870000 39.345001 30.629000 # O UNL
37 13 1 0.752000 12.152000 34.001999 12.595000 # C UNL
38 13 2 -0.376000 11.560000 35.042999 12.596000 # O UNL
39 13 2 -0.376000 12.743000 32.960999 12.594000 # O UNL
40 14 1 0.752000 35.474998 6.783000 32.174000 # C UNL
41 14 2 -0.376000 36.598000 6.746000 32.588001 # O UNL
42 14 2 -0.376000 34.353001 6.820000 31.760000 # O UNL
43 15 1 0.752000 17.165001 24.566999 1.696000 # C UNL
44 15 2 -0.376000 17.358999 25.285000 0.758000 # O UNL
45 15 2 -0.376000 16.972000 23.850000 2.635000 # O UNL
46 16 1 0.752000 19.938999 31.181999 10.147000 # C UNL
47 16 2 -0.376000 19.548000 32.027000 9.395000 # O UNL
48 16 2 -0.376000 20.330999 30.336000 10.898000 # O UNL
49 17 1 0.752000 12.557000 6.517000 30.194000 # C UNL
50 17 2 -0.376000 11.418000 6.252000 29.938000 # O UNL
51 17 2 -0.376000 13.696000 6.781000 30.450001 # O UNL
52 18 1 0.752000 11.421000 8.418000 21.180000 # C UNL
53 18 2 -0.376000 12.243000 7.548000 21.207001 # O UNL
54 18 2 -0.376000 10.599000 9.288000 21.153000 # O UNL
55 19 1 0.752000 14.880000 24.048000 26.158001 # C UNL
56 19 2 -0.376000 13.816000 23.639999 26.525000 # O UNL
57 19 2 -0.376000 15.944000 24.457001 25.791000 # O UNL
58 20 1 0.752000 28.646000 32.167999 23.179001 # C UNL
59 20 2 -0.376000 29.438000 33.025002 23.445000 # O UNL
60 20 2 -0.376000 27.855000 31.309999 22.912001 # O UNL
61 21 1 0.752000 19.683001 38.959999 3.761000 # C UNL
62 21 2 -0.376000 20.580999 38.207001 4.007000 # O UNL
63 21 2 -0.376000 18.785000 39.712002 3.515000 # O UNL
64 22 1 0.752000 12.166000 28.698000 31.180000 # C UNL
65 22 2 -0.376000 12.792000 29.705999 31.337000 # O UNL
66 22 2 -0.376000 11.540000 27.690001 31.021999 # O UNL
67 23 1 0.752000 17.677999 16.695000 9.897000 # C UNL
68 23 2 -0.376000 17.040001 16.924999 10.883000 # O UNL
69 23 2 -0.376000 18.315001 16.464001 8.910000 # O UNL
70 24 1 0.752000 15.412000 9.877000 15.792000 # C UNL
71 24 2 -0.376000 15.272000 8.740000 15.443000 # O UNL
72 24 2 -0.376000 15.553000 11.013000 16.142000 # O UNL
73 25 1 0.752000 18.261000 21.356001 2.199000 # C UNL
74 25 2 -0.376000 19.073000 21.150999 1.343000 # O UNL
75 25 2 -0.376000 17.450001 21.561001 3.055000 # O UNL
76 26 1 0.752000 25.959000 19.125000 32.985001 # C UNL
77 26 2 -0.376000 25.455999 18.082001 33.289001 # O UNL
78 26 2 -0.376000 26.462000 20.167999 32.681000 # O UNL
79 27 1 0.752000 4.454000 1.994000 15.340000 # C UNL
80 27 2 -0.376000 5.610000 1.806000 15.588000 # O UNL
81 27 2 -0.376000 3.298000 2.183000 15.092000 # O UNL
82 28 1 0.752000 32.382999 36.880001 5.615000 # C UNL
83 28 2 -0.376000 33.549999 37.125000 5.505000 # O UNL
84 28 2 -0.376000 31.216000 36.634998 5.725000 # O UNL
85 29 1 0.752000 2.050000 32.896000 8.016000 # C UNL
86 29 2 -0.376000 3.214000 32.632000 7.927000 # O UNL
87 29 2 -0.376000 0.886000 33.160999 8.104000 # O UNL
88 30 1 0.752000 16.437000 17.811001 28.577999 # C UNL
89 30 2 -0.376000 16.712000 17.487000 27.458000 # O UNL
90 30 2 -0.376000 16.163000 18.136000 29.697001 # O UNL
91 31 1 0.752000 3.084000 30.861000 9.546000 # C UNL
92 31 2 -0.376000 2.571000 30.181000 8.705000 # O UNL
93 31 2 -0.376000 3.598000 31.541000 10.387000 # O UNL
94 32 1 0.752000 8.472000 31.407000 2.245000 # C UNL
95 32 2 -0.376000 7.431000 31.791000 1.796000 # O UNL
96 32 2 -0.376000 9.513000 31.023001 2.695000 # O UNL
97 33 1 0.752000 23.891001 15.363000 19.766001 # C UNL
98 33 2 -0.376000 23.165001 14.460000 20.066999 # O UNL
99 33 2 -0.376000 24.615999 16.266001 19.465000 # O UNL
100 34 1 0.752000 13.925000 20.059999 19.028999 # C UNL
101 34 2 -0.376000 13.437000 20.893999 18.323000 # O UNL
102 34 2 -0.376000 14.413000 19.225000 19.735001 # O UNL
103 35 1 0.752000 26.114000 39.048000 15.675000 # C UNL
104 35 2 -0.376000 26.780001 38.062000 15.805000 # O UNL
105 35 2 -0.376000 25.448000 40.035000 15.544000 # O UNL
106 36 1 0.752000 6.894000 19.275999 32.532001 # C UNL
107 36 2 -0.376000 5.914000 19.886000 32.217999 # O UNL
108 36 2 -0.376000 7.875000 18.665001 32.845001 # O UNL
109 37 1 0.752000 35.980000 28.309000 37.379002 # C UNL
110 37 2 -0.376000 35.060001 28.209000 38.139000 # O UNL
111 37 2 -0.376000 36.898998 28.410000 36.618999 # O UNL
112 38 1 0.752000 37.355999 13.959000 31.333000 # C UNL
113 38 2 -0.376000 36.485001 13.982000 32.153999 # O UNL
114 38 2 -0.376000 38.226002 13.935000 30.511999 # O UNL
115 39 1 0.752000 30.076000 16.672001 20.406000 # C UNL
116 39 2 -0.376000 31.093000 17.113001 19.954000 # O UNL
117 39 2 -0.376000 29.059000 16.231001 20.857000 # O UNL
118 40 1 0.752000 10.403000 22.117001 39.158001 # C UNL
119 40 2 -0.376000 9.621000 21.941000 40.047001 # O UNL
120 40 2 -0.376000 11.185000 22.294001 38.269001 # O UNL
121 41 1 0.752000 27.629999 16.167999 23.256001 # C UNL
122 41 2 -0.376000 28.617001 15.503000 23.127001 # O UNL
123 41 2 -0.376000 26.643000 16.833000 23.385000 # O UNL
124 42 1 0.752000 20.649000 37.115002 8.108000 # C UNL
125 42 2 -0.376000 20.740000 37.481998 6.972000 # O UNL
126 42 2 -0.376000 20.559000 36.748001 9.244000 # O UNL
127 43 1 0.752000 12.390000 28.801001 6.559000 # C UNL
128 43 2 -0.376000 12.585000 27.622000 6.627000 # O UNL
129 43 2 -0.376000 12.195000 29.981001 6.491000 # O UNL
130 44 1 0.752000 38.396000 24.174999 38.969002 # C UNL
131 44 2 -0.376000 37.283001 24.610001 39.034000 # O UNL
132 44 2 -0.376000 39.509998 23.740999 38.904999 # O UNL
133 45 1 0.752000 22.254999 37.875000 22.570999 # C UNL
134 45 2 -0.376000 21.790001 38.474998 21.645000 # O UNL
135 45 2 -0.376000 22.719999 37.276001 23.497000 # O UNL
136 46 1 0.752000 36.876999 29.379999 27.608999 # C UNL
137 46 2 -0.376000 37.941002 28.834999 27.546000 # O UNL
138 46 2 -0.376000 35.813000 29.924000 27.671000 # O UNL
139 47 1 0.752000 12.586000 5.442000 23.865999 # C UNL
140 47 2 -0.376000 13.388000 5.220000 23.004999 # O UNL
141 47 2 -0.376000 11.783000 5.664000 24.726000 # O UNL
142 48 1 0.752000 25.315001 20.214001 35.705002 # C UNL
143 48 2 -0.376000 25.417000 19.049999 35.444000 # O UNL
144 48 2 -0.376000 25.212999 21.378000 35.966000 # O UNL
145 49 1 0.752000 17.797001 33.516998 3.875000 # C UNL
146 49 2 -0.376000 18.757999 34.153000 4.200000 # O UNL
147 49 2 -0.376000 16.837000 32.880001 3.549000 # O UNL
148 50 1 0.752000 24.297001 11.764000 1.677000 # C UNL
149 50 2 -0.376000 23.922001 12.086000 0.587000 # O UNL
150 50 2 -0.376000 24.671000 11.441000 2.768000 # O UNL
151 51 1 0.752000 17.261000 12.895000 29.237000 # C UNL
152 51 2 -0.376000 16.202999 12.347000 29.354000 # O UNL
153 51 2 -0.376000 18.319000 13.443000 29.120001 # O UNL
154 52 1 0.752000 9.075000 6.662000 19.929001 # C UNL
155 52 2 -0.376000 8.169000 7.437000 19.819000 # O UNL
156 52 2 -0.376000 9.980000 5.886000 20.038000 # O UNL
157 53 1 0.752000 21.246000 32.429001 39.105000 # C UNL
158 53 2 -0.376000 20.591000 32.813999 38.180000 # O UNL
159 53 2 -0.376000 21.900999 32.042999 40.029999 # O UNL
160 54 1 0.752000 17.600000 33.743000 9.722000 # C UNL
161 54 2 -0.376000 18.452000 34.386002 10.266000 # O UNL
162 54 2 -0.376000 16.747999 33.101002 9.179000 # O UNL
163 55 1 0.752000 6.997000 18.820000 38.903999 # C UNL
164 55 2 -0.376000 7.097000 19.829000 38.268002 # O UNL
165 55 2 -0.376000 6.898000 17.811001 39.540001 # O UNL
166 56 1 0.752000 12.265000 8.877000 13.351000 # C UNL
167 56 2 -0.376000 13.432000 8.633000 13.241000 # O UNL
168 56 2 -0.376000 11.098000 9.120000 13.460000 # O UNL
169 57 1 0.752000 3.425000 27.190001 27.547001 # C UNL
170 57 2 -0.376000 4.609000 27.011999 27.549000 # O UNL
171 57 2 -0.376000 2.241000 27.367001 27.545000 # O UNL
172 58 1 0.752000 1.324000 0.999000 29.514000 # C UNL
173 58 2 -0.376000 0.227000 0.555000 29.694000 # O UNL
174 58 2 -0.376000 2.421000 1.443000 29.333000 # O UNL
175 59 1 0.752000 24.495001 30.400000 11.446000 # C UNL
176 59 2 -0.376000 23.804001 31.355000 11.656000 # O UNL
177 59 2 -0.376000 25.184999 29.445000 11.236000 # O UNL
178 60 1 0.752000 34.299000 32.771999 29.041000 # C UNL
179 60 2 -0.376000 34.172001 32.665001 30.226000 # O UNL
180 60 2 -0.376000 34.425999 32.879002 27.855000 # O UNL
181 61 1 0.752000 5.959000 29.545000 1.968000 # C UNL
182 61 2 -0.376000 5.971000 30.049999 0.883000 # O UNL
183 61 2 -0.376000 5.947000 29.040001 3.054000 # O UNL
184 62 1 0.752000 38.700001 17.490000 38.660000 # C UNL
185 62 2 -0.376000 38.535000 18.656000 38.874001 # O UNL
186 62 2 -0.376000 38.865002 16.323000 38.446999 # O UNL
187 63 1 0.752000 5.569000 38.935001 18.305000 # C UNL
188 63 2 -0.376000 6.068000 37.859001 18.462000 # O UNL
189 63 2 -0.376000 5.069000 40.012001 18.148001 # O UNL
190 64 1 0.752000 8.148000 8.446000 32.660999 # C UNL
191 64 2 -0.376000 8.053000 7.295000 32.346001 # O UNL
192 64 2 -0.376000 8.242000 9.597000 32.976002 # O UNL
193 65 1 0.752000 29.347000 20.299000 31.889000 # C UNL
194 65 2 -0.376000 29.122999 20.801001 32.952999 # O UNL
195 65 2 -0.376000 29.570000 19.798000 30.826000 # O UNL
196 66 1 0.752000 17.169001 26.452000 39.456001 # C UNL
197 66 2 -0.376000 17.943001 25.540001 39.415001 # O UNL
198 66 2 -0.376000 16.393999 27.364000 39.495998 # O UNL
199 67 1 0.752000 9.280000 5.429000 6.654000 # C UNL
200 67 2 -0.376000 9.528000 5.541000 7.820000 # O UNL
201 67 2 -0.376000 9.032000 5.317000 5.488000 # O UNL
202 68 1 0.752000 2.708000 27.312000 3.575000 # C UNL
203 68 2 -0.376000 3.688000 27.719000 4.128000 # O UNL
204 68 2 -0.376000 1.728000 26.903999 3.021000 # O UNL
205 69 1 0.752000 23.212999 13.653000 24.957001 # C UNL
206 69 2 -0.376000 23.440001 12.823000 24.125000 # O UNL
207 69 2 -0.376000 22.986000 14.483000 25.789000 # O UNL
208 70 1 0.752000 20.695000 36.467999 2.580000 # C UNL
209 70 2 -0.376000 21.457001 37.208000 2.028000 # O UNL
210 70 2 -0.376000 19.934000 35.727001 3.133000 # O UNL
211 71 1 0.752000 27.820999 25.426001 26.568001 # C UNL
212 71 2 -0.376000 27.434999 25.037001 25.504000 # O UNL
213 71 2 -0.376000 28.207001 25.813999 27.632999 # O UNL
214 72 1 0.752000 21.112000 30.302999 8.296000 # C UNL
215 72 2 -0.376000 20.094999 29.829000 7.879000 # O UNL
216 72 2 -0.376000 22.129000 30.777000 8.712000 # O UNL
217 73 1 0.752000 34.346001 32.955002 8.528000 # C UNL
218 73 2 -0.376000 33.219002 32.585999 8.688000 # O UNL
219 73 2 -0.376000 35.473999 33.325001 8.369000 # O UNL
220 74 1 0.752000 34.931000 21.702000 2.070000 # C UNL
221 74 2 -0.376000 34.429001 22.537001 2.766000 # O UNL
222 74 2 -0.376000 35.432999 20.867001 1.375000 # O UNL
223 75 1 0.752000 22.125000 7.054000 16.783001 # C UNL
224 75 2 -0.376000 21.612000 8.112000 16.559000 # O UNL
225 75 2 -0.376000 22.636999 5.995000 17.007000 # O UNL
226 76 1 0.752000 26.014000 34.891998 22.511999 # C UNL
227 76 2 -0.376000 27.187000 34.932999 22.275000 # O UNL
228 76 2 -0.376000 24.841999 34.852001 22.747999 # O UNL
229 77 1 0.752000 28.242001 26.256001 30.120001 # C UNL
230 77 2 -0.376000 28.586000 25.150999 29.812000 # O UNL
231 77 2 -0.376000 27.898001 27.360001 30.429001 # O UNL
232 78 1 0.752000 31.563000 1.950000 1.062000 # C UNL
233 78 2 -0.376000 30.642000 1.202000 0.900000 # O UNL
234 78 2 -0.376000 32.483002 2.698000 1.224000 # O UNL
235 79 1 0.752000 24.768000 23.513000 26.641001 # C UNL
236 79 2 -0.376000 24.018999 23.011000 27.429001 # O UNL
237 79 2 -0.376000 25.517000 24.016001 25.853001 # O UNL
238 80 1 0.752000 3.577000 19.098000 14.247000 # C UNL
239 80 2 -0.376000 4.513000 19.815001 14.040000 # O UNL
240 80 2 -0.376000 2.641000 18.381001 14.454000 # O UNL
241 81 1 0.752000 17.385000 27.139999 11.323000 # C UNL
242 81 2 -0.376000 17.898001 27.413000 10.276000 # O UNL
243 81 2 -0.376000 16.872000 26.865999 12.370000 # O UNL
244 82 1 0.752000 38.198002 10.640000 18.368999 # C UNL
245 82 2 -0.376000 37.140999 10.711000 17.811001 # O UNL
246 82 2 -0.376000 39.254002 10.569000 18.927999 # O UNL
247 83 1 0.752000 31.209000 23.532000 31.027000 # C UNL
248 83 2 -0.376000 32.339001 23.924000 30.999001 # O UNL
249 83 2 -0.376000 30.077999 23.139999 31.055000 # O UNL
250 84 1 0.752000 11.641000 26.350000 26.108000 # C UNL
251 84 2 -0.376000 11.623000 25.548000 26.997000 # O UNL
252 84 2 -0.376000 11.659000 27.152000 25.219999 # O UNL
253 85 1 0.752000 18.973000 24.632999 19.535000 # C UNL
254 85 2 -0.376000 18.606001 23.896000 20.405001 # O UNL
255 85 2 -0.376000 19.340000 25.368999 18.666000 # O UNL
256 86 1 0.752000 35.658001 5.957000 22.716000 # C UNL
257 86 2 -0.376000 36.776001 5.529000 22.719999 # O UNL
258 86 2 -0.376000 34.539001 6.384000 22.712000 # O UNL
259 87 1 0.752000 36.965000 15.178000 10.085000 # C UNL
260 87 2 -0.376000 37.956001 15.660000 10.552000 # O UNL
261 87 2 -0.376000 35.973000 14.696000 9.618000 # O UNL
262 88 1 0.752000 24.143000 29.650000 2.359000 # C UNL
263 88 2 -0.376000 24.011999 28.594999 2.908000 # O UNL
264 88 2 -0.376000 24.274000 30.705999 1.811000 # O UNL
265 89 1 0.752000 20.740000 31.040001 26.443001 # C UNL
266 89 2 -0.376000 21.362000 30.035999 26.639999 # O UNL
267 89 2 -0.376000 20.118999 32.044998 26.245001 # O UNL
268 90 1 0.752000 15.026000 34.466000 16.371000 # C UNL
269 90 2 -0.376000 14.221000 35.067001 17.021000 # O UNL
270 90 2 -0.376000 15.831000 33.863998 15.720000 # O UNL
271 91 1 0.752000 10.838000 12.860000 4.953000 # C UNL
272 91 2 -0.376000 11.761000 12.098000 4.977000 # O UNL
273 91 2 -0.376000 9.915000 13.623000 4.929000 # O UNL
274 92 1 0.752000 1.470000 21.386999 32.877998 # C UNL
275 92 2 -0.376000 2.316000 22.225000 33.000999 # O UNL
276 92 2 -0.376000 0.624000 20.549000 32.756001 # O UNL
277 93 1 0.752000 3.190000 11.883000 35.313000 # C UNL
278 93 2 -0.376000 2.578000 12.899000 35.154999 # O UNL
279 93 2 -0.376000 3.802000 10.866000 35.470001 # O UNL
280 94 1 0.752000 36.667999 21.361000 4.542000 # C UNL
281 94 2 -0.376000 36.441002 22.296000 3.830000 # O UNL
282 94 2 -0.376000 36.895000 20.426001 5.254000 # O UNL
283 95 1 0.752000 16.708000 32.018002 36.306000 # C UNL
284 95 2 -0.376000 15.996000 32.868999 36.756001 # O UNL
285 95 2 -0.376000 17.420000 31.167000 35.855999 # O UNL
286 96 1 0.752000 23.292000 25.990999 25.247999 # C UNL
287 96 2 -0.376000 22.398001 26.187000 26.018999 # O UNL
288 96 2 -0.376000 24.186001 25.795000 24.476999 # O UNL
289 97 1 0.752000 22.636000 32.389999 1.362000 # C UNL
290 97 2 -0.376000 23.545000 32.889000 0.764000 # O UNL
291 97 2 -0.376000 21.726999 31.891001 1.960000 # O UNL
292 98 1 0.752000 25.816999 32.922001 3.336000 # C UNL
293 98 2 -0.376000 25.511999 32.562000 2.236000 # O UNL
294 98 2 -0.376000 26.122000 33.282001 4.436000 # O UNL
295 99 1 0.752000 17.829000 28.511999 7.829000 # C UNL
296 99 2 -0.376000 17.476000 29.643000 7.656000 # O UNL
297 99 2 -0.376000 18.181000 27.381001 8.003000 # O UNL
298 100 1 0.752000 30.804001 29.306000 28.429001 # C UNL
299 100 2 -0.376000 30.495001 29.187000 27.278999 # O UNL
300 100 2 -0.376000 31.113001 29.424999 29.579000 # O UNL
301 101 1 0.752000 39.473000 36.300999 31.774000 # C UNL
302 101 2 -0.376000 39.278999 37.470001 31.948999 # O UNL
303 101 2 -0.376000 39.667999 35.132999 31.600000 # O UNL
304 102 1 0.752000 31.917999 2.209000 26.160000 # C UNL
305 102 2 -0.376000 32.460999 2.507000 27.184999 # O UNL
306 102 2 -0.376000 31.375000 1.912000 25.136000 # O UNL
307 103 1 0.752000 18.115000 19.558001 26.319000 # C UNL
308 103 2 -0.376000 19.068001 18.848000 26.177999 # O UNL
309 103 2 -0.376000 17.160999 20.268000 26.459999 # O UNL
310 104 1 0.752000 38.339001 35.835999 19.902000 # C UNL
311 104 2 -0.376000 39.384998 35.255001 19.858000 # O UNL
312 104 2 -0.376000 37.292999 36.417000 19.947001 # O UNL
313 105 1 0.752000 17.457001 5.326000 15.263000 # C UNL
314 105 2 -0.376000 17.601000 5.326000 14.075000 # O UNL
315 105 2 -0.376000 17.312000 5.327000 16.452000 # O UNL
316 106 1 0.752000 1.983000 18.129999 23.223000 # C UNL
317 106 2 -0.376000 2.776000 17.737000 24.028999 # O UNL
318 106 2 -0.376000 1.191000 18.523001 22.416000 # O UNL
319 107 1 0.752000 7.921000 30.917000 8.696000 # C UNL
320 107 2 -0.376000 8.632000 30.228001 9.369000 # O UNL
321 107 2 -0.376000 7.210000 31.606001 8.023000 # O UNL
322 108 1 0.752000 19.551001 22.865000 5.368000 # C UNL
323 108 2 -0.376000 19.520000 23.570999 6.335000 # O UNL
324 108 2 -0.376000 19.583000 22.159000 4.402000 # O UNL
325 109 1 0.752000 4.108000 3.525000 5.490000 # C UNL
326 109 2 -0.376000 3.072000 3.528000 4.890000 # O UNL
327 109 2 -0.376000 5.143000 3.521000 6.091000 # O UNL
328 110 1 0.752000 37.939999 15.899000 24.362000 # C UNL
329 110 2 -0.376000 37.105999 15.056000 24.197001 # O UNL
330 110 2 -0.376000 38.772999 16.742001 24.527000 # O UNL
331 111 1 0.752000 18.555000 6.484000 25.736000 # C UNL
332 111 2 -0.376000 19.533001 5.796000 25.690001 # O UNL
333 111 2 -0.376000 17.576000 7.172000 25.782000 # O UNL
334 112 1 0.752000 38.603001 6.783000 15.901000 # C UNL
335 112 2 -0.376000 39.743999 6.424000 15.956000 # O UNL
336 112 2 -0.376000 37.462002 7.142000 15.846000 # O UNL
337 113 1 0.752000 30.334000 3.452000 33.509998 # C UNL
338 113 2 -0.376000 31.177000 2.602000 33.499001 # O UNL
339 113 2 -0.376000 29.490999 4.303000 33.521000 # O UNL
340 114 1 0.752000 38.637001 6.725000 38.583000 # C UNL
341 114 2 -0.376000 38.028000 6.473000 37.584000 # O UNL
342 114 2 -0.376000 39.245998 6.978000 39.582001 # O UNL
343 115 1 0.752000 22.457001 3.249000 11.988000 # C UNL
344 115 2 -0.376000 21.271000 3.317000 11.839000 # O UNL
345 115 2 -0.376000 23.643000 3.181000 12.137000 # O UNL
346 116 1 0.752000 15.790000 9.975000 29.226000 # C UNL
347 116 2 -0.376000 14.607000 10.117000 29.337000 # O UNL
348 116 2 -0.376000 16.974001 9.832000 29.115000 # O UNL
349 117 1 0.752000 26.638000 9.688000 16.476000 # C UNL
350 117 2 -0.376000 27.260000 8.759000 16.046000 # O UNL
351 117 2 -0.376000 26.017000 10.616000 16.905001 # O UNL
352 118 1 0.752000 31.018000 15.739000 33.171001 # C UNL
353 118 2 -0.376000 31.632000 16.233000 32.269001 # O UNL
354 118 2 -0.376000 30.403999 15.246000 34.073002 # O UNL
355 119 1 0.752000 10.893000 16.834000 32.362000 # C UNL
356 119 2 -0.376000 9.913000 17.483000 32.131001 # O UNL
357 119 2 -0.376000 11.872000 16.186001 32.594002 # O UNL
358 120 1 0.752000 7.486000 3.228000 15.360000 # C UNL
359 120 2 -0.376000 7.001000 4.175000 14.811000 # O UNL
360 120 2 -0.376000 7.971000 2.282000 15.910000 # O UNL
361 121 1 0.752000 23.974001 2.260000 31.544001 # C UNL
362 121 2 -0.376000 24.090000 2.773000 30.468000 # O UNL
363 121 2 -0.376000 23.858999 1.748000 32.618999 # O UNL
364 122 1 0.752000 26.334000 22.059000 1.146000 # C UNL
365 122 2 -0.376000 27.122999 22.770000 0.594000 # O UNL
366 122 2 -0.376000 25.546000 21.348000 1.699000 # O UNL
367 123 1 0.752000 32.431999 24.384001 0.011000 # C UNL
368 123 2 -0.376000 32.060001 23.247000 -0.046000 # O UNL
369 123 2 -0.376000 32.803001 25.520000 0.067000 # O UNL
370 124 1 0.752000 16.865999 14.335000 32.834999 # C UNL
371 124 2 -0.376000 15.766000 14.289000 33.303001 # O UNL
372 124 2 -0.376000 17.966999 14.381000 32.366001 # O UNL
373 125 1 0.752000 30.148001 21.905001 26.542000 # C UNL
374 125 2 -0.376000 29.315001 21.469999 27.284000 # O UNL
375 125 2 -0.376000 30.981001 22.339001 25.799000 # O UNL
376 126 1 0.752000 6.401000 29.632999 26.410999 # C UNL
377 126 2 -0.376000 6.172000 29.204000 25.316999 # O UNL
378 126 2 -0.376000 6.631000 30.062000 27.504999 # O UNL
379 127 1 0.752000 14.225000 16.198999 10.843000 # C UNL
380 127 2 -0.376000 13.596000 16.448000 9.855000 # O UNL
381 127 2 -0.376000 14.853000 15.949000 11.831000 # O UNL
382 128 1 0.752000 12.599000 24.900000 11.478000 # C UNL
383 128 2 -0.376000 11.992000 25.680000 10.801000 # O UNL
384 128 2 -0.376000 13.206000 24.121000 12.154000 # O UNL
385 129 1 0.752000 11.260000 15.334000 11.828000 # C UNL
386 129 2 -0.376000 10.506000 14.496000 12.231000 # O UNL
387 129 2 -0.376000 12.015000 16.172001 11.426000 # O UNL
388 130 1 0.752000 34.849998 23.806000 16.106001 # C UNL
389 130 2 -0.376000 34.762001 22.629999 15.900000 # O UNL
390 130 2 -0.376000 34.938000 24.982000 16.311001 # O UNL
391 131 1 0.752000 19.591000 1.191000 10.421000 # C UNL
392 131 2 -0.376000 20.014999 0.764000 9.386000 # O UNL
393 131 2 -0.376000 19.167000 1.617000 11.457000 # O UNL
394 132 1 0.752000 39.187000 25.000000 7.875000 # C UNL
395 132 2 -0.376000 39.951000 24.799999 6.975000 # O UNL
396 132 2 -0.376000 38.424000 25.201000 8.775000 # O UNL
397 133 1 0.752000 39.077999 22.105000 11.882000 # C UNL
398 133 2 -0.376000 38.376999 21.153999 12.076000 # O UNL
399 133 2 -0.376000 39.778999 23.056000 11.688000 # O UNL
400 134 1 0.752000 30.072001 5.276000 36.001999 # C UNL
401 134 2 -0.376000 28.944000 5.089000 35.647999 # O UNL
402 134 2 -0.376000 31.201000 5.462000 36.355000 # O UNL
403 135 1 0.752000 35.708000 4.314000 5.149000 # C UNL
404 135 2 -0.376000 35.386002 4.425000 4.002000 # O UNL
405 135 2 -0.376000 36.029999 4.202000 6.297000 # O UNL
406 136 1 0.752000 0.936000 22.954000 18.930000 # C UNL
407 136 2 -0.376000 1.475000 21.955000 18.551001 # O UNL
408 136 2 -0.376000 0.397000 23.954000 19.309000 # O UNL
409 137 1 0.752000 18.111000 16.986000 24.546000 # C UNL
410 137 2 -0.376000 17.117001 17.625999 24.733999 # O UNL
411 137 2 -0.376000 19.105000 16.346001 24.358000 # O UNL
412 138 1 0.752000 20.169001 20.104000 32.740002 # C UNL
413 138 2 -0.376000 19.097000 20.066000 33.271000 # O UNL
414 138 2 -0.376000 21.240999 20.143000 32.209000 # O UNL
415 139 1 0.752000 16.336000 2.658000 15.099000 # C UNL
416 139 2 -0.376000 15.548000 3.494000 14.760000 # O UNL
417 139 2 -0.376000 17.122999 1.822000 15.438000 # O UNL
418 140 1 0.752000 13.661000 19.683001 32.273998 # C UNL
419 140 2 -0.376000 13.064000 20.312000 33.099998 # O UNL
420 140 2 -0.376000 14.258000 19.055000 31.448000 # O UNL
421 141 1 0.752000 15.251000 10.040000 31.667000 # C UNL
422 141 2 -0.376000 14.483000 10.945000 31.513000 # O UNL
423 141 2 -0.376000 16.018999 9.134000 31.820999 # O UNL
424 142 1 0.752000 26.938999 37.702999 2.097000 # C UNL
425 142 2 -0.376000 26.340000 38.195999 3.008000 # O UNL
426 142 2 -0.376000 27.539000 37.209999 1.186000 # O UNL
427 143 1 0.752000 32.334999 37.410000 39.373001 # C UNL
428 143 2 -0.376000 32.091000 36.417000 39.994999 # O UNL
429 143 2 -0.376000 32.578999 38.403000 38.750999 # O UNL
430 144 1 0.752000 30.551001 10.004000 7.257000 # C UNL
431 144 2 -0.376000 30.929001 9.230000 8.089000 # O UNL
432 144 2 -0.376000 30.173000 10.778000 6.426000 # O UNL
433 145 1 0.752000 30.412001 21.628000 20.856001 # C UNL
434 145 2 -0.376000 30.594999 21.275999 21.986000 # O UNL
435 145 2 -0.376000 30.229000 21.979000 19.726999 # O UNL
436 146 1 0.752000 37.160999 33.236000 22.506001 # C UNL
437 146 2 -0.376000 38.034000 33.890999 22.999001 # O UNL
438 146 2 -0.376000 36.287998 32.582001 22.013000 # O UNL
439 147 1 0.752000 17.832001 38.919998 13.690000 # C UNL
440 147 2 -0.376000 16.768000 38.722000 14.201000 # O UNL
441 147 2 -0.376000 18.896000 39.118000 13.179000 # O UNL
442 148 1 0.752000 27.077000 36.444000 5.013000 # C UNL
443 148 2 -0.376000 26.077999 36.931999 5.458000 # O UNL
444 148 2 -0.376000 28.075001 35.956001 4.567000 # O UNL
445 149 1 0.752000 13.858000 23.992001 15.735000 # C UNL
446 149 2 -0.376000 13.358000 24.572001 16.655001 # O UNL
447 149 2 -0.376000 14.358000 23.410999 14.815000 # O UNL
448 150 1 0.752000 25.580999 13.410000 24.982000 # C UNL
449 150 2 -0.376000 25.231001 14.132000 25.870001 # O UNL
450 150 2 -0.376000 25.931000 12.687000 24.094000 # O UNL
451 151 1 0.752000 9.852000 16.059999 4.917000 # C UNL
452 151 2 -0.376000 9.114000 15.538000 5.702000 # O UNL
453 151 2 -0.376000 10.589000 16.583000 4.132000 # O UNL
454 152 1 0.752000 13.263000 26.249001 28.955000 # C UNL
455 152 2 -0.376000 14.428000 26.084999 28.736000 # O UNL
456 152 2 -0.376000 12.097000 26.413000 29.173000 # O UNL
457 153 1 0.752000 24.687000 14.339000 17.174999 # C UNL
458 153 2 -0.376000 23.686001 14.814000 17.627001 # O UNL
459 153 2 -0.376000 25.688999 13.864000 16.722000 # O UNL
460 154 1 0.752000 28.813000 38.631001 14.536000 # C UNL
461 154 2 -0.376000 28.653000 39.783001 14.252000 # O UNL
462 154 2 -0.376000 28.973000 37.479000 14.821000 # O UNL
463 155 1 0.752000 7.795000 29.535000 21.586000 # C UNL
464 155 2 -0.376000 6.759000 29.867001 21.086000 # O UNL
465 155 2 -0.376000 8.831000 29.204000 22.086000 # O UNL
466 156 1 0.752000 32.316002 30.674999 34.731998 # C UNL
467 156 2 -0.376000 32.394001 31.320999 35.737000 # O UNL
468 156 2 -0.376000 32.237999 30.028999 33.728001 # O UNL
469 157 1 0.752000 27.936001 3.542000 11.490000 # C UNL
470 157 2 -0.376000 28.179001 4.097000 10.457000 # O UNL
471 157 2 -0.376000 27.694000 2.987000 12.523000 # O UNL
472 158 1 0.752000 35.894001 21.924000 28.662001 # C UNL
473 158 2 -0.376000 35.273998 22.947001 28.722000 # O UNL
474 158 2 -0.376000 36.514000 20.902000 28.603001 # O UNL
475 159 1 0.752000 21.283001 23.455000 28.249001 # C UNL
476 159 2 -0.376000 21.943001 23.091999 29.179001 # O UNL
477 159 2 -0.376000 20.622999 23.819000 27.319000 # O UNL
478 160 1 0.752000 31.370001 5.030000 38.570999 # C UNL
479 160 2 -0.376000 30.344999 5.637000 38.689999 # O UNL
480 160 2 -0.376000 32.395000 4.422000 38.452999 # O UNL
481 161 1 0.752000 6.643000 37.396999 10.828000 # C UNL
482 161 2 -0.376000 7.241000 37.082001 9.840000 # O UNL
483 161 2 -0.376000 6.044000 37.710999 11.816000 # O UNL
484 162 1 0.752000 38.721001 38.034000 27.903000 # C UNL
485 162 2 -0.376000 38.630001 37.036999 28.559999 # O UNL
486 162 2 -0.376000 38.812000 39.030998 27.247000 # O UNL
487 163 1 0.752000 11.045000 6.145000 39.216999 # C UNL
488 163 2 -0.376000 12.142000 5.816000 38.868999 # O UNL
489 163 2 -0.376000 9.947000 6.474000 39.563999 # O UNL
490 164 1 0.752000 19.318001 38.402000 21.943001 # C UNL
491 164 2 -0.376000 18.900999 39.499001 21.705000 # O UNL
492 164 2 -0.376000 19.735001 37.306000 22.181000 # O UNL
493 165 1 0.752000 18.124001 13.145000 8.665000 # C UNL
494 165 2 -0.376000 17.158001 13.776000 8.344000 # O UNL
495 165 2 -0.376000 19.089001 12.515000 8.985000 # O UNL
496 166 1 0.752000 30.664000 33.700001 33.909000 # C UNL
497 166 2 -0.376000 31.535999 33.250999 34.595001 # O UNL
498 166 2 -0.376000 29.791000 34.148998 33.222000 # O UNL
499 167 1 0.752000 1.665000 25.087999 36.521000 # C UNL
500 167 2 -0.376000 1.272000 24.663000 35.473000 # O UNL
501 167 2 -0.376000 2.058000 25.513000 37.569000 # O UNL
502 168 1 0.752000 27.708000 12.853000 3.873000 # C UNL
503 168 2 -0.376000 27.667999 12.854000 5.070000 # O UNL
504 168 2 -0.376000 27.747999 12.851000 2.677000 # O UNL
505 169 1 0.752000 22.016001 35.450001 13.313000 # C UNL
506 169 2 -0.376000 22.084999 35.000999 14.420000 # O UNL
507 169 2 -0.376000 21.945999 35.900002 12.205000 # O UNL
508 170 1 0.752000 9.208000 29.872999 4.658000 # C UNL
509 170 2 -0.376000 8.266000 30.598000 4.803000 # O UNL
510 170 2 -0.376000 10.149000 29.148001 4.513000 # O UNL
511 171 1 0.752000 20.065001 5.569000 15.308000 # C UNL
512 171 2 -0.376000 20.646999 6.591000 15.089000 # O UNL
513 171 2 -0.376000 19.482000 4.546000 15.527000 # O UNL
514 172 1 0.752000 20.548000 9.608000 24.462000 # C UNL
515 172 2 -0.376000 19.862000 10.576000 24.302000 # O UNL
516 172 2 -0.376000 21.235001 8.641000 24.621000 # O UNL
517 173 1 0.752000 28.297001 0.540000 4.969000 # C UNL