LAMMPS data file. CGCMM style. atom_style full generated by VMD/TopoTools v1.8 on Fri Apr 28 19:46:42 +0530 2023
 1500 atoms
 1200 bonds
 1800 angles
 0 dihedrals
 0 impropers
 2 atom types
 1 bond types
 1 angle types
 0 dihedral types
 0 improper types
 -5.000000 45.000000  xlo xhi
 -5.000000 45.000000  ylo yhi
 -5.000000 45.000000  zlo zhi

 Masses

 1 12.010700 # C
 2 1.007940 # H

 Atoms # full

1 1 1 -0.520000 12.202000 18.150000 16.372999 # C UNL
2 1 2 0.130000 12.317000 19.236000 16.371000 # H UNL
3 1 2 0.130000 12.809000 17.718000 15.574000 # H UNL
4 1 2 0.130000 11.152000 17.896000 16.209999 # H UNL
5 1 2 0.130000 12.528000 17.750999 17.336000 # H UNL
6 2 1 -0.520000 17.966999 11.674000 15.397000 # C UNL
7 2 2 0.130000 17.497000 11.072000 16.177000 # H UNL
8 2 2 0.130000 18.429001 11.016000 14.658000 # H UNL
9 2 2 0.130000 18.731001 12.315000 15.842000 # H UNL
10 2 2 0.130000 17.209999 12.294000 14.910000 # H UNL
11 3 1 -0.520000 26.466000 28.673000 32.854000 # C UNL
12 3 2 0.130000 27.243000 28.447001 33.588001 # H UNL
13 3 2 0.130000 26.840000 28.458000 31.851000 # H UNL
14 3 2 0.130000 26.195000 29.729000 32.924000 # H UNL
15 3 2 0.130000 25.586000 28.056999 33.054001 # H UNL
16 4 1 -0.520000 36.473999 4.009000 33.976002 # C UNL
17 4 2 0.130000 35.492001 4.361000 33.651001 # H UNL
18 4 2 0.130000 37.249001 4.656000 33.558998 # H UNL
19 4 2 0.130000 36.626999 2.986000 33.627998 # H UNL
20 4 2 0.130000 36.526001 4.034000 35.067001 # H UNL
21 5 1 -0.520000 31.294001 34.556999 25.511000 # C UNL
22 5 2 0.130000 30.289000 34.978001 25.573000 # H UNL
23 5 2 0.130000 31.725000 34.784000 24.534000 # H UNL
24 5 2 0.130000 31.245001 33.473999 25.643999 # H UNL
25 5 2 0.130000 31.920000 34.991001 26.295000 # H UNL
26 6 1 -0.520000 14.747000 28.927999 12.016000 # C UNL
27 6 2 0.130000 14.537000 29.999001 11.983000 # H UNL
28 6 2 0.130000 14.427000 28.523001 12.978000 # H UNL
29 6 2 0.130000 15.820000 28.763000 11.891000 # H UNL
30 6 2 0.130000 14.206000 28.426001 11.211000 # H UNL
31 7 1 -0.520000 30.868999 13.414000 28.377001 # C UNL
32 7 2 0.130000 30.235001 12.525000 28.408001 # H UNL
33 7 2 0.130000 30.725000 13.930000 27.424999 # H UNL
34 7 2 0.130000 31.915001 13.118000 28.475000 # H UNL
35 7 2 0.130000 30.600000 14.081000 29.198000 # H UNL
36 8 1 -0.520000 9.398000 32.964001 15.698000 # C UNL
37 8 2 0.130000 10.401000 32.686001 15.370000 # H UNL
38 8 2 0.130000 9.122000 32.368000 16.570999 # H UNL
39 8 2 0.130000 8.686000 32.778999 14.891000 # H UNL
40 8 2 0.130000 9.382000 34.023998 15.962000 # H UNL
41 9 1 -0.520000 9.419000 8.924000 38.985001 # C UNL
42 9 2 0.130000 9.577000 9.980000 38.755001 # H UNL
43 9 2 0.130000 9.854000 8.310000 38.194000 # H UNL
44 9 2 0.130000 8.348000 8.723000 39.054001 # H UNL
45 9 2 0.130000 9.897000 8.684000 39.937000 # H UNL
46 10 1 -0.520000 29.700001 38.937000 37.881001 # C UNL
47 10 2 0.130000 28.768000 38.418999 37.646999 # H UNL
48 10 2 0.130000 30.384001 38.855000 37.033001 # H UNL
49 10 2 0.130000 30.158001 38.483002 38.763000 # H UNL
50 10 2 0.130000 29.490999 39.990002 38.080002 # H UNL
51 11 1 -0.520000 20.702999 15.009000 4.095000 # C UNL
52 11 2 0.130000 21.365000 14.143000 4.162000 # H UNL
53 11 2 0.130000 20.944000 15.713000 4.895000 # H UNL
54 11 2 0.130000 19.666000 14.683000 4.198000 # H UNL
55 11 2 0.130000 20.839001 15.496000 3.127000 # H UNL
56 12 1 -0.520000 36.367001 3.890000 18.784000 # C UNL
57 12 2 0.130000 37.174999 3.158000 18.861000 # H UNL
58 12 2 0.130000 36.787998 4.898000 18.783001 # H UNL
59 12 2 0.130000 35.693001 3.779000 19.636000 # H UNL
60 12 2 0.130000 35.813999 3.725000 17.857000 # H UNL
61 13 1 -0.520000 14.675000 34.655998 0.693000 # C UNL
62 13 2 0.130000 15.088000 35.275002 1.491000 # H UNL
63 13 2 0.130000 15.490000 34.198002 0.128000 # H UNL
64 13 2 0.130000 14.073000 35.276001 0.025000 # H UNL
65 13 2 0.130000 14.048000 33.873001 1.127000 # H UNL
66 14 1 -0.520000 34.450001 2.719000 10.060000 # C UNL
67 14 2 0.130000 34.581001 1.640000 10.174000 # H UNL
68 14 2 0.130000 34.028999 2.932000 9.075000 # H UNL
69 14 2 0.130000 35.417999 3.215000 10.157000 # H UNL
70 14 2 0.130000 33.772999 3.087000 10.834000 # H UNL
71 15 1 -0.520000 24.378000 19.716000 31.468000 # C UNL
72 15 2 0.130000 24.805000 20.410999 32.193001 # H UNL
73 15 2 0.130000 23.292000 19.691999 31.582001 # H UNL
74 15 2 0.130000 24.784000 18.716000 31.639000 # H UNL
75 15 2 0.130000 24.631001 20.044001 30.457001 # H UNL
76 16 1 -0.520000 5.669000 11.953000 8.470000 # C UNL
77 16 2 0.130000 5.471000 12.703000 9.239000 # H UNL
78 16 2 0.130000 6.738000 11.733000 8.443000 # H UNL
79 16 2 0.130000 5.351000 12.335000 7.498000 # H UNL
80 16 2 0.130000 5.115000 11.040000 8.702000 # H UNL
81 17 1 -0.520000 28.733999 36.702000 27.278000 # C UNL
82 17 2 0.130000 29.483999 37.290001 26.745001 # H UNL
83 17 2 0.130000 29.230000 35.931000 27.871000 # H UNL
84 17 2 0.130000 28.061001 36.231998 26.559000 # H UNL
85 17 2 0.130000 28.160999 37.358002 27.938999 # H UNL
86 18 1 -0.520000 25.127001 18.674999 35.492001 # C UNL
87 18 2 0.130000 26.041000 18.100000 35.653999 # H UNL
88 18 2 0.130000 24.507999 18.636000 36.390999 # H UNL
89 18 2 0.130000 24.573999 18.250000 34.652000 # H UNL
90 18 2 0.130000 25.384001 19.712999 35.271000 # H UNL
91 19 1 -0.520000 32.731998 24.118000 18.118999 # C UNL
92 19 2 0.130000 33.818001 24.216999 18.191000 # H UNL
93 19 2 0.130000 32.417999 24.296000 17.087999 # H UNL
94 19 2 0.130000 32.256001 24.849001 18.775999 # H UNL
95 19 2 0.130000 32.438000 23.111000 18.422001 # H UNL
96 20 1 -0.520000 27.714001 16.695000 33.158001 # C UNL
97 20 2 0.130000 28.323999 16.340000 32.324001 # H UNL
98 20 2 0.130000 27.594999 15.893000 33.889000 # H UNL
99 20 2 0.130000 26.732000 16.997000 32.786999 # H UNL
100 20 2 0.130000 28.205000 17.549000 33.629002 # H UNL
101 21 1 -0.520000 14.473000 23.393000 20.233999 # C UNL
102 21 2 0.130000 13.957000 24.354000 20.271000 # H UNL
103 21 2 0.130000 13.959000 22.679001 20.882999 # H UNL
104 21 2 0.130000 15.502000 23.518999 20.576000 # H UNL
105 21 2 0.130000 14.473000 23.018000 19.208000 # H UNL
106 22 1 -0.520000 30.912001 1.474000 25.313999 # C UNL
107 22 2 0.130000 31.941000 1.728000 25.575001 # H UNL
108 22 2 0.130000 30.268000 1.620000 26.184000 # H UNL
109 22 2 0.130000 30.864000 0.429000 24.997000 # H UNL
110 22 2 0.130000 30.573999 2.117000 24.497999 # H UNL
111 23 1 -0.520000 21.011000 1.706000 22.152000 # C UNL
112 23 2 0.130000 20.330000 2.559000 22.169001 # H UNL
113 23 2 0.130000 21.486000 1.639000 21.170000 # H UNL
114 23 2 0.130000 20.452000 0.790000 22.349001 # H UNL
115 23 2 0.130000 21.778000 1.838000 22.919001 # H UNL
116 24 1 -0.520000 17.135000 9.041000 33.604000 # C UNL
117 24 2 0.130000 17.587000 9.663000 32.828999 # H UNL
118 24 2 0.130000 16.188000 9.484000 33.919998 # H UNL
119 24 2 0.130000 17.809999 8.977000 34.459999 # H UNL
120 24 2 0.130000 16.954000 8.039000 33.208000 # H UNL
121 25 1 -0.520000 35.488998 8.162000 20.683001 # C UNL
122 25 2 0.130000 35.525002 7.456000 21.516001 # H UNL
123 25 2 0.130000 34.550999 8.036000 20.138000 # H UNL
124 25 2 0.130000 36.328999 7.974000 20.011000 # H UNL
125 25 2 0.130000 35.553001 9.183000 21.068001 # H UNL
126 26 1 -0.520000 12.392000 7.672000 31.268999 # C UNL
127 26 2 0.130000 11.385000 7.736000 31.686001 # H UNL
128 26 2 0.130000 12.667000 6.623000 31.139000 # H UNL
129 26 2 0.130000 13.099000 8.152000 31.950001 # H UNL
130 26 2 0.130000 12.418000 8.178000 30.301001 # H UNL
131 27 1 -0.520000 3.077000 25.372000 36.236000 # C UNL
132 27 2 0.130000 3.337000 26.174999 36.929001 # H UNL
133 27 2 0.130000 3.942000 24.719999 36.094002 # H UNL
134 27 2 0.130000 2.784000 25.801001 35.276001 # H UNL
135 27 2 0.130000 2.247000 24.792000 36.645000 # H UNL
136 28 1 -0.520000 3.968000 35.417000 15.023000 # C UNL
137 28 2 0.130000 3.832000 36.355999 15.564000 # H UNL
138 28 2 0.130000 5.010000 35.324001 14.711000 # H UNL
139 28 2 0.130000 3.322000 35.408001 14.142000 # H UNL
140 28 2 0.130000 3.706000 34.580002 15.674000 # H UNL
141 29 1 -0.520000 31.910000 4.808000 19.778000 # C UNL
142 29 2 0.130000 31.014999 4.183000 19.796000 # H UNL
143 29 2 0.130000 32.472000 4.666000 20.704000 # H UNL
144 29 2 0.130000 31.620001 5.857000 19.686001 # H UNL
145 29 2 0.130000 32.534000 4.526000 18.927000 # H UNL
146 30 1 -0.520000 17.952999 37.630001 28.656000 # C UNL
147 30 2 0.130000 17.931999 38.720001 28.701000 # H UNL
148 30 2 0.130000 17.150000 37.223999 29.275000 # H UNL
149 30 2 0.130000 18.915001 37.269001 29.027000 # H UNL
150 30 2 0.130000 17.816000 37.305000 27.622000 # H UNL
151 31 1 -0.520000 37.514999 11.645000 16.716999 # C UNL
152 31 2 0.130000 37.326000 10.854000 15.989000 # H UNL
153 31 2 0.130000 37.814999 12.556000 16.195000 # H UNL
154 31 2 0.130000 38.314999 11.333000 17.393000 # H UNL
155 31 2 0.130000 36.605999 11.836000 17.292000 # H UNL
156 32 1 -0.520000 35.019001 17.061001 28.745001 # C UNL
157 32 2 0.130000 35.535000 16.103001 28.650000 # H UNL
158 32 2 0.130000 35.203999 17.476999 29.738001 # H UNL
159 32 2 0.130000 33.946999 16.913000 28.606001 # H UNL
160 32 2 0.130000 35.393002 17.753000 27.986000 # H UNL
161 33 1 -0.520000 1.341000 33.102001 33.783001 # C UNL
162 33 2 0.130000 1.897000 34.021999 33.588001 # H UNL
163 33 2 0.130000 2.038000 32.264999 33.862000 # H UNL
164 33 2 0.130000 0.643000 32.917999 32.964001 # H UNL
165 33 2 0.130000 0.787000 33.203999 34.719002 # H UNL
166 34 1 -0.520000 26.617001 8.766000 9.423000 # C UNL
167 34 2 0.130000 27.024000 9.633000 8.898000 # H UNL
168 34 2 0.130000 25.552999 8.670000 9.197000 # H UNL
169 34 2 0.130000 26.750000 8.897000 10.499000 # H UNL
170 34 2 0.130000 27.142000 7.865000 9.098000 # H UNL
171 35 1 -0.520000 22.993999 30.527000 33.651001 # C UNL
172 35 2 0.130000 23.848000 29.877001 33.851002 # H UNL
173 35 2 0.130000 22.594000 30.903000 34.595001 # H UNL
174 35 2 0.130000 22.221001 29.962000 33.126999 # H UNL
175 35 2 0.130000 23.313999 31.368000 33.030998 # H UNL
176 36 1 -0.520000 32.717999 9.257000 25.799999 # C UNL
177 36 2 0.130000 33.650002 9.182000 25.236000 # H UNL
178 36 2 0.130000 31.913000 9.573000 25.132999 # H UNL
179 36 2 0.130000 32.835999 9.989000 26.601000 # H UNL
180 36 2 0.130000 32.473999 8.282000 26.230000 # H UNL
181 37 1 -0.520000 3.913000 38.771999 21.957001 # C UNL
182 37 2 0.130000 2.863000 38.474998 21.983999 # H UNL
183 37 2 0.130000 4.433000 38.352001 22.820999 # H UNL
184 37 2 0.130000 3.985000 39.861000 21.983000 # H UNL
185 37 2 0.130000 4.373000 38.398998 21.038000 # H UNL
186 38 1 -0.520000 25.365000 35.736000 29.743000 # C UNL
187 38 2 0.130000 25.517000 34.798000 29.205000 # H UNL
188 38 2 0.130000 24.434000 36.200001 29.410000 # H UNL
189 38 2 0.130000 26.200001 36.410000 29.542000 # H UNL
190 38 2 0.130000 25.309000 35.535999 30.816000 # H UNL
191 39 1 -0.520000 0.851000 12.664000 14.330000 # C UNL
192 39 2 0.130000 0.988000 13.717000 14.079000 # H UNL
193 39 2 0.130000 0.043000 12.565000 15.058000 # H UNL
194 39 2 0.130000 1.776000 12.269000 14.758000 # H UNL
195 39 2 0.130000 0.599000 12.103000 13.427000 # H UNL
196 40 1 -0.520000 5.790000 14.613000 34.741001 # C UNL
197 40 2 0.130000 4.920000 14.359000 34.131001 # H UNL
198 40 2 0.130000 6.077000 15.649000 34.550999 # H UNL
199 40 2 0.130000 6.620000 13.952000 34.483002 # H UNL
200 40 2 0.130000 5.542000 14.491000 35.798000 # H UNL
201 41 1 -0.520000 35.768002 14.977000 2.912000 # C UNL
202 41 2 0.130000 36.702000 15.435000 3.244000 # H UNL
203 41 2 0.130000 34.952999 15.696000 3.018000 # H UNL
204 41 2 0.130000 35.557999 14.096000 3.522000 # H UNL
205 41 2 0.130000 35.859001 14.682000 1.864000 # H UNL
206 42 1 -0.520000 38.757000 1.744000 28.016001 # C UNL
207 42 2 0.130000 38.771999 0.757000 27.549999 # H UNL
208 42 2 0.130000 39.178001 2.479000 27.327999 # H UNL
209 42 2 0.130000 39.349998 1.723000 28.933001 # H UNL
210 42 2 0.130000 37.726002 2.017000 28.254999 # H UNL
211 43 1 -0.520000 31.118999 20.705999 37.108002 # C UNL
212 43 2 0.130000 31.874001 20.145000 37.664001 # H UNL
213 43 2 0.130000 31.601000 21.261000 36.299999 # H UNL
214 43 2 0.130000 30.617001 21.403999 37.779999 # H UNL
215 43 2 0.130000 30.386999 20.013000 36.688000 # H UNL
216 44 1 -0.520000 32.314999 39.435001 32.598000 # C UNL
217 44 2 0.130000 33.081001 39.601002 33.358002 # H UNL
218 44 2 0.130000 31.361000 39.834000 32.951000 # H UNL
219 44 2 0.130000 32.213001 38.362999 32.410999 # H UNL
220 44 2 0.130000 32.603001 39.939999 31.674000 # H UNL
221 45 1 -0.520000 29.080000 3.982000 7.394000 # C UNL
222 45 2 0.130000 29.160999 4.395000 6.386000 # H UNL
223 45 2 0.130000 29.381001 4.739000 8.122000 # H UNL
224 45 2 0.130000 29.731001 3.111000 7.484000 # H UNL
225 45 2 0.130000 28.046000 3.685000 7.583000 # H UNL
226 46 1 -0.520000 29.118000 18.489000 21.891001 # C UNL
227 46 2 0.130000 29.312000 19.563999 21.902000 # H UNL
228 46 2 0.130000 28.656000 18.193001 22.836000 # H UNL
229 46 2 0.130000 30.058001 17.950001 21.761000 # H UNL
230 46 2 0.130000 28.443001 18.250000 21.066000 # H UNL
231 47 1 -0.520000 23.910000 12.740000 25.660000 # C UNL
232 47 2 0.130000 23.044001 12.108000 25.451000 # H UNL
233 47 2 0.130000 23.759001 13.724000 25.211000 # H UNL
234 47 2 0.130000 24.806000 12.281000 25.238001 # H UNL
235 47 2 0.130000 24.030001 12.847000 26.740999 # H UNL
236 48 1 -0.520000 31.514000 1.452000 10.922000 # C UNL
237 48 2 0.130000 32.417999 1.042000 10.467000 # H UNL
238 48 2 0.130000 31.787001 2.098000 11.758000 # H UNL
239 48 2 0.130000 30.886000 0.635000 11.283000 # H UNL
240 48 2 0.130000 30.962999 2.032000 10.177000 # H UNL
241 49 1 -0.520000 29.962000 20.400999 26.893000 # C UNL
242 49 2 0.130000 29.507000 21.066999 26.156000 # H UNL
243 49 2 0.130000 29.299999 20.306999 27.757000 # H UNL
244 49 2 0.130000 30.922001 20.812000 27.212000 # H UNL
245 49 2 0.130000 30.118000 19.416000 26.445000 # H UNL
246 50 1 -0.520000 19.065001 6.401000 24.660000 # C UNL
247 50 2 0.130000 18.733999 5.360000 24.652000 # H UNL
248 50 2 0.130000 19.552000 6.621000 25.612000 # H UNL
249 50 2 0.130000 18.202999 7.058000 24.532000 # H UNL
250 50 2 0.130000 19.771999 6.564000 23.841999 # H UNL
251 51 1 -0.520000 14.138000 9.278000 27.184000 # C UNL
252 51 2 0.130000 14.323000 9.867000 26.284000 # H UNL
253 51 2 0.130000 14.706000 8.346000 27.132000 # H UNL
254 51 2 0.130000 13.072000 9.051000 27.259001 # H UNL
255 51 2 0.130000 14.452000 9.847000 28.062000 # H UNL
256 52 1 -0.520000 6.619000 9.727000 36.124001 # C UNL
257 52 2 0.130000 7.380000 9.406000 36.838001 # H UNL
258 52 2 0.130000 6.979000 9.559000 35.106998 # H UNL
259 52 2 0.130000 6.412000 10.790000 36.265999 # H UNL
260 52 2 0.130000 5.703000 9.154000 36.285999 # H UNL
261 53 1 -0.520000 12.363000 13.361000 21.990000 # C UNL
262 53 2 0.130000 12.517000 14.180000 21.285000 # H UNL
263 53 2 0.130000 11.664000 13.676000 22.768000 # H UNL
264 53 2 0.130000 13.317000 13.089000 22.447001 # H UNL
265 53 2 0.130000 11.953000 12.497000 21.461000 # H UNL
266 54 1 -0.520000 8.289000 7.148000 32.393002 # C UNL
267 54 2 0.130000 7.635000 8.023000 32.379002 # H UNL
268 54 2 0.130000 7.831000 6.362000 32.997002 # H UNL
269 54 2 0.130000 9.254000 7.422000 32.824001 # H UNL
270 54 2 0.130000 8.434000 6.786000 31.372000 # H UNL
271 55 1 -0.520000 32.646999 26.789000 8.247000 # C UNL
272 55 2 0.130000 31.580000 27.021999 8.236000 # H UNL
273 55 2 0.130000 32.858002 26.011000 7.509000 # H UNL
274 55 2 0.130000 32.931999 26.434999 9.240000 # H UNL
275 55 2 0.130000 33.217999 27.687000 8.002000 # H UNL
276 56 1 -0.520000 11.249000 24.582001 30.879999 # C UNL
277 56 2 0.130000 10.187000 24.783001 31.039000 # H UNL
278 56 2 0.130000 11.607000 23.892000 31.648001 # H UNL
279 56 2 0.130000 11.810000 25.516001 30.941000 # H UNL
280 56 2 0.130000 11.391000 24.134001 29.893999 # H UNL
281 57 1 -0.520000 39.188000 20.052000 28.179001 # C UNL
282 57 2 0.130000 39.562000 20.955999 27.695000 # H UNL
283 57 2 0.130000 39.932999 19.257999 28.091999 # H UNL
284 57 2 0.130000 38.261002 19.736000 27.695000 # H UNL
285 57 2 0.130000 38.995998 20.257000 29.235001 # H UNL
286 58 1 -0.520000 18.730000 8.410000 20.417999 # C UNL
287 58 2 0.130000 18.492001 7.346000 20.466999 # H UNL
288 58 2 0.130000 17.857000 8.993000 20.719000 # H UNL
289 58 2 0.130000 19.007999 8.674000 19.395000 # H UNL
290 58 2 0.130000 19.563999 8.628000 21.090000 # H UNL
291 59 1 -0.520000 8.731000 14.462000 37.776001 # C UNL
292 59 2 0.130000 8.485000 13.403000 37.886002 # H UNL
293 59 2 0.130000 9.005000 14.874000 38.749001 # H UNL
294 59 2 0.130000 7.864000 14.998000 37.383999 # H UNL
295 59 2 0.130000 9.570000 14.571000 37.084000 # H UNL
296 60 1 -0.520000 8.799000 6.138000 22.257000 # C UNL
297 60 2 0.130000 8.589000 6.908000 21.511999 # H UNL
298 60 2 0.130000 8.259000 6.365000 23.179001 # H UNL
299 60 2 0.130000 9.872000 6.113000 22.462000 # H UNL
300 60 2 0.130000 8.478000 5.166000 21.875999 # H UNL
301 61 1 -0.520000 17.611000 14.068000 18.457001 # C UNL
302 61 2 0.130000 18.500000 13.547000 18.818001 # H UNL
303 61 2 0.130000 17.410999 14.932000 19.094000 # H UNL
304 61 2 0.130000 16.754999 13.390000 18.485001 # H UNL
305 61 2 0.130000 17.775999 14.403000 17.430000 # H UNL
306 62 1 -0.520000 8.757000 11.896000 17.724001 # C UNL
307 62 2 0.130000 9.209000 11.123000 17.099001 # H UNL
308 62 2 0.130000 9.544000 12.515000 18.162001 # H UNL
309 62 2 0.130000 8.177000 11.427000 18.521000 # H UNL
310 62 2 0.130000 8.101000 12.521000 17.114000 # H UNL
311 63 1 -0.520000 10.546000 7.566000 1.720000 # C UNL
312 63 2 0.130000 10.194000 8.539000 1.368000 # H UNL
313 63 2 0.130000 9.853000 6.788000 1.392000 # H UNL
314 63 2 0.130000 10.598000 7.571000 2.811000 # H UNL
315 63 2 0.130000 11.538000 7.368000 1.308000 # H UNL
316 64 1 -0.520000 2.164000 10.133000 17.701000 # C UNL
317 64 2 0.130000 2.968000 10.859000 17.559000 # H UNL
318 64 2 0.130000 1.631000 10.356000 18.628000 # H UNL
319 64 2 0.130000 2.588000 9.128000 17.757999 # H UNL
320 64 2 0.130000 1.470000 10.188000 16.858999 # H UNL
321 65 1 -0.520000 21.679001 21.614000 3.302000 # C UNL
322 65 2 0.130000 22.240999 21.493000 2.373000 # H UNL
323 65 2 0.130000 21.989000 22.537001 3.797000 # H UNL
324 65 2 0.130000 21.875999 20.764999 3.960000 # H UNL
325 65 2 0.130000 20.611000 21.662001 3.077000 # H UNL
326 66 1 -0.520000 28.742001 0.941000 19.517000 # C UNL
327 66 2 0.130000 28.579000 1.913000 19.047001 # H UNL
328 66 2 0.130000 27.992001 0.782000 20.295000 # H UNL
329 66 2 0.130000 29.739000 0.913000 19.961000 # H UNL
330 66 2 0.130000 28.657000 0.154000 18.763000 # H UNL
331 67 1 -0.520000 9.398000 31.804001 21.697001 # C UNL
332 67 2 0.130000 8.626000 32.507000 22.017000 # H UNL
333 67 2 0.130000 9.429000 31.770000 20.606001 # H UNL
334 67 2 0.130000 9.168000 30.809999 22.086000 # H UNL
335 67 2 0.130000 10.368000 32.130001 22.080000 # H UNL
336 68 1 -0.520000 32.737000 9.630000 1.212000 # C UNL
337 68 2 0.130000 33.178001 8.905000 1.900000 # H UNL
338 68 2 0.130000 32.706001 10.612000 1.689000 # H UNL
339 68 2 0.130000 31.723000 9.318000 0.954000 # H UNL
340 68 2 0.130000 33.342999 9.685000 0.304000 # H UNL
341 69 1 -0.520000 36.021000 25.426001 32.806999 # C UNL
342 69 2 0.130000 35.483002 26.375999 32.769001 # H UNL
343 69 2 0.130000 36.396999 25.261000 33.819000 # H UNL
344 69 2 0.130000 36.860001 25.455000 32.108002 # H UNL
345 69 2 0.130000 35.345001 24.614000 32.532001 # H UNL
346 70 1 -0.520000 38.723999 9.365000 2.327000 # C UNL
347 70 2 0.130000 39.633999 9.948000 2.481000 # H UNL
348 70 2 0.130000 38.956001 8.478000 1.734000 # H UNL
349 70 2 0.130000 37.987000 9.973000 1.798000 # H UNL
350 70 2 0.130000 38.318001 9.061000 3.294000 # H UNL
351 71 1 -0.520000 9.800000 17.871000 7.111000 # C UNL
352 71 2 0.130000 9.426000 18.024000 8.125000 # H UNL
353 71 2 0.130000 9.973000 18.839001 6.636000 # H UNL
354 71 2 0.130000 9.063000 17.309000 6.532000 # H UNL
355 71 2 0.130000 10.737000 17.311001 7.148000 # H UNL
356 72 1 -0.520000 38.783001 35.567001 8.754000 # C UNL
357 72 2 0.130000 38.736000 36.418999 8.073000 # H UNL
358 72 2 0.130000 38.712002 34.639999 8.181000 # H UNL
359 72 2 0.130000 37.953999 35.619999 9.463000 # H UNL
360 72 2 0.130000 39.730000 35.588001 9.298000 # H UNL
361 73 1 -0.520000 34.641998 35.657001 24.639999 # C UNL
362 73 2 0.130000 35.466000 36.191002 24.162001 # H UNL
363 73 2 0.130000 33.699001 36.150002 24.395000 # H UNL
364 73 2 0.130000 34.785000 35.662998 25.723000 # H UNL
365 73 2 0.130000 34.618999 34.625999 24.281000 # H UNL
366 74 1 -0.520000 30.436001 24.120001 25.635000 # C UNL
367 74 2 0.130000 29.389999 24.145000 25.945999 # H UNL
368 74 2 0.130000 31.073999 24.382000 26.482000 # H UNL
369 74 2 0.130000 30.593000 24.836000 24.826000 # H UNL
370 74 2 0.130000 30.688999 23.115000 25.287001 # H UNL
371 75 1 -0.520000 36.903000 33.429001 25.829000 # C UNL
372 75 2 0.130000 37.175999 34.458000 26.070999 # H UNL
373 75 2 0.130000 36.963001 33.279999 24.749001 # H UNL
374 75 2 0.130000 35.882999 33.234001 26.167000 # H UNL
375 75 2 0.130000 37.589001 32.743000 26.330999 # H UNL
376 76 1 -0.520000 22.639000 19.860001 18.465000 # C UNL
377 76 2 0.130000 23.599001 20.378000 18.406000 # H UNL
378 76 2 0.130000 22.367001 19.486000 17.476000 # H UNL
379 76 2 0.130000 21.872000 20.554001 18.815001 # H UNL
380 76 2 0.130000 22.719000 19.023001 19.162001 # H UNL
381 77 1 -0.520000 1.866000 8.233000 10.213000 # C UNL
382 77 2 0.130000 2.870000 8.139000 9.794000 # H UNL
383 77 2 0.130000 1.550000 9.278000 10.170000 # H UNL
384 77 2 0.130000 1.871000 7.897000 11.252000 # H UNL
385 77 2 0.130000 1.172000 7.618000 9.635000 # H UNL
386 78 1 -0.520000 17.357000 21.402000 13.271000 # C UNL
387 78 2 0.130000 18.160000 22.141001 13.310000 # H UNL
388 78 2 0.130000 16.815001 21.403000 14.219000 # H UNL
389 78 2 0.130000 17.783001 20.410999 13.097000 # H UNL
390 78 2 0.130000 16.672001 21.652000 12.458000 # H UNL
391 79 1 -0.520000 22.364000 0.938000 29.219000 # C UNL
392 79 2 0.130000 23.395000 0.703000 29.493000 # H UNL
393 79 2 0.130000 21.857000 0.026000 28.895000 # H UNL
394 79 2 0.130000 22.361000 1.665000 28.403999 # H UNL
395 79 2 0.130000 21.844000 1.357000 30.084000 # H UNL
396 80 1 -0.520000 30.292000 36.784000 32.282001 # C UNL
397 80 2 0.130000 31.239000 36.240002 32.282001 # H UNL
398 80 2 0.130000 30.142000 37.254002 33.257000 # H UNL
399 80 2 0.130000 29.473000 36.090000 32.082001 # H UNL
400 80 2 0.130000 30.315001 37.554001 31.507000 # H UNL
401 81 1 -0.520000 31.275999 11.358000 34.102001 # C UNL
402 81 2 0.130000 32.361000 11.260000 34.174999 # H UNL
403 81 2 0.130000 30.898001 11.878000 34.986000 # H UNL
404 81 2 0.130000 30.823999 10.366000 34.042000 # H UNL
405 81 2 0.130000 31.021999 11.929000 33.207001 # H UNL
406 82 1 -0.520000 16.420000 27.962999 31.802999 # C UNL
407 82 2 0.130000 15.590000 27.896000 32.508999 # H UNL
408 82 2 0.130000 16.118000 28.562000 30.941000 # H UNL
409 82 2 0.130000 16.695999 26.959999 31.469000 # H UNL
410 82 2 0.130000 17.277000 28.433001 32.291000 # H UNL
411 83 1 -0.520000 9.051000 36.446999 16.914000 # C UNL
412 83 2 0.130000 8.672000 36.562000 15.896000 # H UNL
413 83 2 0.130000 10.036000 35.973999 16.884001 # H UNL
414 83 2 0.130000 8.365000 35.820999 17.489000 # H UNL
415 83 2 0.130000 9.132000 37.428001 17.386000 # H UNL
416 84 1 -0.520000 19.584999 4.414000 29.166000 # C UNL
417 84 2 0.130000 19.525999 5.501000 29.247000 # H UNL
418 84 2 0.130000 19.976000 4.143000 28.183001 # H UNL
419 84 2 0.130000 18.589001 3.985000 29.292000 # H UNL
420 84 2 0.130000 20.249001 4.027000 29.941999 # H UNL
421 85 1 -0.520000 22.282000 1.333000 18.153999 # C UNL
422 85 2 0.130000 23.356001 1.162000 18.247999 # H UNL
423 85 2 0.130000 21.892000 0.750000 17.316999 # H UNL
424 85 2 0.130000 22.097000 2.395000 17.974001 # H UNL
425 85 2 0.130000 21.782000 1.027000 19.076000 # H UNL
426 86 1 -0.520000 30.958000 14.293000 36.091999 # C UNL
427 86 2 0.130000 30.306000 13.469000 36.388000 # H UNL
428 86 2 0.130000 30.361000 15.195000 35.944000 # H UNL
429 86 2 0.130000 31.468000 14.037000 35.160000 # H UNL
430 86 2 0.130000 31.698999 14.471000 36.875000 # H UNL
431 87 1 -0.520000 15.201000 1.086000 35.765999 # C UNL
432 87 2 0.130000 14.520000 0.259000 35.977001 # H UNL
433 87 2 0.130000 16.065001 1.026000 36.431999 # H UNL
434 87 2 0.130000 14.683000 2.034000 35.928001 # H UNL
435 87 2 0.130000 15.536000 1.026000 34.728001 # H UNL
436 88 1 -0.520000 23.579000 12.770000 0.990000 # C UNL
437 88 2 0.130000 23.820999 12.275000 1.932000 # H UNL
438 88 2 0.130000 23.826000 13.831000 1.062000 # H UNL
439 88 2 0.130000 22.511999 12.658000 0.783000 # H UNL
440 88 2 0.130000 24.156000 12.316000 0.181000 # H UNL
441 89 1 -0.520000 24.544001 26.412001 29.878000 # C UNL
442 89 2 0.130000 24.150999 26.444000 30.896999 # H UNL
443 89 2 0.130000 25.549000 26.839001 29.862000 # H UNL
444 89 2 0.130000 23.893000 26.989000 29.219000 # H UNL
445 89 2 0.130000 24.583000 25.375000 29.535000 # H UNL
446 90 1 -0.520000 20.329000 7.785000 35.116001 # C UNL
447 90 2 0.130000 21.270000 7.238000 35.027000 # H UNL
448 90 2 0.130000 19.658001 7.491000 34.306000 # H UNL
449 90 2 0.130000 20.524000 8.858000 35.056000 # H UNL
450 90 2 0.130000 19.863001 7.552000 36.077000 # H UNL
451 91 1 -0.520000 9.151000 32.039001 29.711000 # C UNL
452 91 2 0.130000 8.364000 31.306999 29.514000 # H UNL
453 91 2 0.130000 9.708000 31.743000 30.601999 # H UNL
454 91 2 0.130000 8.701000 33.021000 29.871000 # H UNL
455 91 2 0.130000 9.828000 32.084000 28.855000 # H UNL
456 92 1 -0.520000 12.744000 30.111000 23.400999 # C UNL
457 92 2 0.130000 13.285000 30.917999 23.899000 # H UNL
458 92 2 0.130000 12.349000 29.421000 24.150000 # H UNL
459 92 2 0.130000 13.423000 29.575001 22.733999 # H UNL
460 92 2 0.130000 11.919000 30.530001 22.820000 # H UNL
461 93 1 -0.520000 32.360001 4.300000 34.581001 # C UNL
462 93 2 0.130000 32.257999 5.318000 34.201000 # H UNL
463 93 2 0.130000 33.352001 3.916000 34.333000 # H UNL
464 93 2 0.130000 31.599001 3.663000 34.125000 # H UNL
465 93 2 0.130000 32.230999 4.302000 35.666000 # H UNL
466 94 1 -0.520000 12.778000 6.603000 24.287001 # C UNL
467 94 2 0.130000 13.109000 7.643000 24.337999 # H UNL
468 94 2 0.130000 13.251000 6.112000 23.433001 # H UNL
469 94 2 0.130000 11.693000 6.571000 24.170000 # H UNL
470 94 2 0.130000 13.061000 6.086000 25.207001 # H UNL
471 95 1 -0.520000 15.149000 2.416000 23.037001 # C UNL
472 95 2 0.130000 14.286000 2.984000 23.389000 # H UNL
473 95 2 0.130000 15.530000 2.865000 22.117001 # H UNL
474 95 2 0.130000 14.850000 1.384000 22.840000 # H UNL
475 95 2 0.130000 15.930000 2.429000 23.799999 # H UNL
476 96 1 -0.520000 1.119000 12.014000 25.667999 # C UNL
477 96 2 0.130000 0.835000 12.905000 25.105000 # H UNL
478 96 2 0.130000 2.200000 11.873000 25.606001 # H UNL
479 96 2 0.130000 0.614000 11.142000 25.247000 # H UNL
480 96 2 0.130000 0.827000 12.135000 26.712999 # H UNL
481 97 1 -0.520000 25.711000 36.972000 5.812000 # C UNL
482 97 2 0.130000 25.457001 35.943001 5.549000 # H UNL
483 97 2 0.130000 26.229000 36.983002 6.774000 # H UNL
484 97 2 0.130000 24.798000 37.564999 5.884000 # H UNL
485 97 2 0.130000 26.361000 37.394001 5.043000 # H UNL
486 98 1 -0.520000 7.810000 13.392000 21.634001 # C UNL
487 98 2 0.130000 8.075000 12.903000 20.695000 # H UNL
488 98 2 0.130000 8.280000 12.862000 22.466000 # H UNL
489 98 2 0.130000 6.725000 13.376000 21.759001 # H UNL
490 98 2 0.130000 8.160000 14.427000 21.617001 # H UNL
491 99 1 -0.520000 4.551000 27.908001 16.038000 # C UNL
492 99 2 0.130000 4.064000 26.930000 16.049000 # H UNL
493 99 2 0.130000 5.635000 27.775000 16.023001 # H UNL
494 99 2 0.130000 4.265000 28.466999 16.931000 # H UNL
495 99 2 0.130000 4.239000 28.459000 15.147000 # H UNL
496 100 1 -0.520000 20.584000 26.445000 32.216999 # C UNL
497 100 2 0.130000 20.695000 27.507999 31.990000 # H UNL
498 100 2 0.130000 19.603001 26.268999 32.662998 # H UNL
499 100 2 0.130000 21.363001 26.139999 32.918999 # H UNL
500 100 2 0.130000 20.676001 25.865000 31.296000 # H UNL
501 101 1 -0.520000 10.685000 11.448000 36.544998 # C UNL
502 101 2 0.130000 9.771000 12.011000 36.345001 # H UNL
503 101 2 0.130000 11.335000 11.486000 35.667999 # H UNL
504 101 2 0.130000 10.432000 10.408000 36.764999 # H UNL
505 101 2 0.130000 11.202000 11.886000 37.402000 # H UNL
506 102 1 -0.520000 5.150000 33.596001 32.242001 # C UNL
507 102 2 0.130000 5.411000 34.477001 31.650999 # H UNL
508 102 2 0.130000 4.283000 33.103001 31.796000 # H UNL
509 102 2 0.130000 4.911000 33.900002 33.263000 # H UNL
510 102 2 0.130000 5.995000 32.903999 32.256001 # H UNL
511 103 1 -0.520000 12.695000 35.410999 8.059000 # C UNL
512 103 2 0.130000 12.468000 36.319000 7.497000 # H UNL
513 103 2 0.130000 12.837000 35.660999 9.113000 # H UNL
514 103 2 0.130000 13.609000 34.959000 7.667000 # H UNL
515 103 2 0.130000 11.868000 34.705002 7.960000 # H UNL
516 104 1 -0.520000 16.292000 10.010000 18.618999 # C UNL
517 104 2 0.130000 15.655000 10.028000 17.732000 # H UNL
518 104 2 0.130000 16.034000 10.850000 19.268000 # H UNL
519 104 2 0.130000 17.337999 10.091000 18.318001 # H UNL
520 104 2 0.130000 16.139000 9.072000 19.158001 # H UNL
521 105 1 -0.520000 11.423000 21.434999 34.824001 # C UNL
522 105 2 0.130000 10.427000 21.591000 35.242001 # H UNL
523 105 2 0.130000 11.952000 22.389000 34.778000 # H UNL
524 105 2 0.130000 11.334000 21.020000 33.817001 # H UNL
525 105 2 0.130000 11.979000 20.740000 35.456001 # H UNL