LAMMPS data file via write_data, version 8 Feb 2023, timestep = 50000

3600 atoms
4 atom types
2600 bonds
2 bond types
2500 angles
2 angle types

0.9855467453716642 39.01445325462883 xlo xhi
0.9855467453716642 39.01445325462883 ylo yhi
0.9855467453716642 39.01445325462883 zlo zhi

Masses

1 12.0107
2 1.00794
3 12.0107
4 15.9994

Pair Coeffs # lj/cut/coul/long

1 0.0663015 3.58118
2 0.0282937 2.37341
3 0.245018 2.81144
4 0.412295 2.62585

Bond Coeffs # harmonic

1 349.274 1.09
2 1063.58 1.17

Angle Coeffs # harmonic

1 47.4817 109.5
2 48.24 180

Atoms # full

2773 725 3 0.752 1.3334905731302444 4.503090439620246 10.106314606021956 0 1 1
238 48 2 0.13 18.92907008941731 15.489998016433383 5.606236470533101 0 0 1
626 126 1 -0.52 28.561367876688536 9.216470488852814 4.455199387056263 1 0 1
2432 611 4 -0.376 9.318456549778295 3.964850252676221 6.142671855474109 1 0 1
2433 611 4 -0.376 8.405666311557113 5.858378027621302 5.155890642760042 1 0 1
2431 611 3 0.752 8.889006136229963 4.8994160865849725 5.663118064129527 1 0 1
1891 431 3 0.752 3.181738790018455 5.421839463265792 12.684066781705368 -1 0 1
1679 360 4 -0.376 1.1162382108388134 6.5100404846421664 3.4615434160510796 0 -1 1
2774 725 4 -0.376 2.1910017692309287 4.532327880002331 9.345241505646804 0 1 1
1678 360 3 0.752 1.2304328983283108 7.619648376169096 3.0168584929705475 0 -1 1
3347 916 4 -0.376 9.237590240290968 2.4077892531144167 10.027653867629724 1 1 1
3246 882 4 -0.376 5.077031007420799 3.381300454465199 7.694774917069525 0 1 3
3346 916 3 0.752 9.534883715643005 1.5098981680280046 10.652547846796274 1 1 1
1837 413 3 0.752 7.03954200784069 1.8666975628093323 11.576786401735038 1 2 1
886 178 1 -0.52 2.936360920070884 11.425169455633474 11.765603927981385 1 2 2
924 185 2 0.13 38.62316734731629 12.248660667868727 5.4753421230707655 0 2 0
890 178 2 0.13 2.7552181861358185 11.15013328265154 12.803356261692514 1 2 2
3404 935 4 -0.376 10.327498721601724 5.4298361459219775 9.341047028127388 0 1 2
3403 935 3 0.752 9.983840222206457 6.255524774123219 8.525279377074565 0 1 2
921 185 1 -0.52 1.5260506139737018 12.31609458708513 5.226179132100808 1 2 0
2682 694 4 -0.376 5.400387232822417 6.704518800403078 8.712117011512245 1 2 1
2680 694 3 0.752 6.229331196424237 6.126170498228246 8.167882423500746 1 2 1
225 45 2 0.13 3.619164724701444 9.334647243229938 7.698647667747701 1 1 2
2681 694 4 -0.376 6.856333414232225 5.505623026707433 7.460352081193107 1 2 1
922 185 2 0.13 1.8286740794655796 12.517079327519621 4.193067654395319 1 2 0
925 185 2 0.13 2.1304925984454792 12.965900094416629 5.942542314412333 1 2 0
887 178 2 0.13 2.0673026214647123 11.144457440389537 11.118124405895037 1 2 2
888 178 2 0.13 3.370783461619858 12.473222883136138 11.572233796295807 1 2 2
1839 413 4 -0.376 7.366524797388728 2.984367374956652 11.565379501838882 1 2 1
923 185 2 0.13 2.0629226414913258 11.422917259858515 5.397876859768278 1 2 0
3245 882 4 -0.376 7.1423955541036985 2.702424213271147 8.484876268788359 0 1 3
2775 725 4 -0.376 38.66019554804447 4.499747984379787 11.113196971568385 -1 1 1
1893 431 4 -0.376 4.090935382077882 5.557109829903705 11.922944244828866 -1 0 1
126 26 1 -0.52 4.156320690908424 5.9835867222465255 5.272502794676525 1 1 1
3244 882 3 0.752 6.131878250719293 3.031903424893255 7.9392392539883065 0 1 3
2041 481 3 0.752 1.3798419601834082 13.604061849928346 9.097862276142644 0 1 1
2042 481 4 -0.376 2.1986490043193685 13.904035342457327 9.794634403251587 0 1 1
2043 481 4 -0.376 38.585039872996134 13.485520275307106 8.402937813297033 -1 1 1
223 45 2 0.13 3.417728058336746 11.101526691341004 8.016807458052401 1 1 2
224 45 2 0.13 2.560930649272448 10.045529301787013 8.921529862031083 1 1 2
221 45 1 -0.52 3.579457249965573 10.151497754014583 8.476827311942909 1 1 2
222 45 2 0.13 4.441514856344115 10.01505341354468 9.18380473140905 1 1 2
102 21 2 0.13 33.37939928843933 8.581826361133379 3.414074132078027 0 0 1
3399 933 4 -0.376 35.69597472123766 4.408575360454124 3.855114723723396 -1 2 0
127 26 2 0.13 3.9319174648147173 6.439286077643991 4.317181615562571 1 1 1
2791 731 3 0.752 36.77255376567964 17.115143874699932 2.694769150473118 0 0 1
237 48 2 0.13 19.439687536216436 14.80179884366 4.305133351760685 0 0 1
340 68 2 0.13 36.83957283690913 9.51852583767444 11.955446090972199 0 2 1
3397 933 3 0.752 34.86878174901819 4.285299747298934 3.101573670333482 -1 2 0
983 197 2 0.13 13.056587122906684 5.3334935477764205 5.728165483377777 1 2 0
3581 994 4 -0.376 7.7436253246208455 3.3526977233139723 1.1013865503391596 0 1 1
1776 392 4 -0.376 7.365754638908702 9.018800762702742 11.435453611293084 -1 1 -1
1774 392 3 0.752 7.249544949951494 7.923983363727343 10.889328334111294 -1 1 -1
129 26 2 0.13 3.767657510826201 6.433620190647554 6.1310859697180815 1 1 1
128 26 2 0.13 3.745455755369381 4.982425586533809 5.1256343305745995 1 1 1
2793 731 4 -0.376 37.31942190645065 16.775898490502193 3.6985519050119944 0 0 1
628 126 2 0.13 27.43165377178444 9.204143254792884 4.633928195003893 1 0 1
2792 731 4 -0.376 36.19785727302157 17.315731511845545 1.6971164988620133 0 0 1
577 116 2 0.13 6.6349447927136085 3.715216240279683 5.230304616355196 -1 2 2
2869 757 3 0.752 32.28872183563894 1.3693471707710498 7.837239098886874 1 2 1
3597 999 4 -0.376 8.595756755188873 9.31387878521866 4.1125361102467375 1 2 1
1275 255 2 0.13 15.74789143197046 10.750423258452296 2.0865155645460014 0 0 1
3522 974 4 -0.376 34.13936699514326 11.451241958111119 10.82781667304957 0 1 0
2870 757 4 -0.376 31.140756710663197 1.5686591583394751 7.920403929621284 1 2 1
3254 885 4 -0.376 38.47724705157573 8.834466524120597 8.82583501562458 0 1 0
613 123 2 0.13 38.51516329064022 9.973913575261587 6.450259060641652 0 0 2
614 123 2 0.13 38.518200962125306 9.96166328055319 4.68655059057819 0 0 2
615 123 2 0.13 38.15163411545183 8.40297870242039 5.692294564692876 0 0 2
611 123 1 -0.52 38.024563490548715 9.425423223680298 5.625810255243249 0 0 2
3426 942 4 -0.376 9.015079614833583 1.2587590442947363 7.286181447880866 2 -1 0
1551 317 4 -0.376 28.553627185014683 15.052014872930753 1.2183783835159567 0 1 2
240 48 2 0.13 18.184187285976257 16.29570987214103 4.219550133827588 0 0 1
3595 999 3 0.752 8.09322314357868 10.307230543277708 4.4004466905633315 1 2 1
2203 535 3 0.752 38.25370159062416 2.3722838841507117 4.183044077750718 0 0 3
905 181 2 0.13 34.57541674888961 11.961197549568617 1.661968119757736 0 0 1
1296 260 1 -0.52 7.507836236922429 9.337632148980578 7.57553296081266 1 1 1
1299 260 2 0.13 7.050960104037332 8.494332922438971 8.078845704549718 1 1 1
1298 260 2 0.13 7.4089338818989585 9.306949131092715 6.58579435945255 1 1 1
339 68 2 0.13 36.98561793142654 10.975567115219748 10.950232092861262 0 2 1
337 68 2 0.13 36.166354879448505 11.122780370932068 12.500176108997053 0 2 1
336 68 1 -0.52 36.92712997230311 10.571200317080883 12.011155237771233 0 2 1
130 26 2 0.13 5.18272021666219 5.857134944512217 5.439208255322434 1 1 1
889 178 2 0.13 3.832904975215019 10.797203803198396 11.39350389172986 1 2 2
2807 736 4 -0.376 5.341892887207143 8.965182911917154 5.391406293512753 0 0 1
2601 667 4 -0.376 14.216560565457986 12.267894456651948 1.8849815513033306 1 -1 0
3405 935 4 -0.376 9.703192263092895 7.135578299520946 7.853467825138463 0 1 2
926 186 1 -0.52 21.122952116000153 4.548485633564093 3.0172310317093336 0 1 -1
430 86 2 0.13 16.817497603192898 9.588114051375095 13.039062606055765 -1 1 2
1652 351 4 -0.376 13.380993026359986 7.9317723500696244 2.237035847250733 1 1 1
2573 658 4 -0.376 17.01958011793225 3.772644817155245 8.863072454142287 -1 1 0
426 86 1 -0.52 16.64378121348713 10.579864429774961 12.478720065584284 -1 1 2
1624 342 3 0.752 12.414538550535628 2.946243719573007 12.150324119883042 1 1 1
80 16 2 0.13 14.317145596216601 2.5867468098242083 5.429674041414066 0 1 1
79 16 2 0.13 15.889531685321115 2.053529073441599 5.796843666600699 0 1 1
78 16 2 0.13 14.729584700297455 1.6742571164025097 7.0120187984842115 0 1 1
77 16 2 0.13 15.26251858261696 3.4926150925370907 6.65579355090796 0 1 1
982 197 2 0.13 12.32727744227149 6.746116113715693 6.835388372471239 1 2 0
76 16 1 -0.52 15.007277664359085 2.495322381878996 6.222859719368815 0 1 1
981 197 1 -0.52 13.10118906659551 5.920414576883711 6.641979782655705 1 2 0
985 197 2 0.13 14.143029423401956 6.404940044611177 6.806479903261314 1 2 0
2952 784 4 -0.376 17.581991049867355 7.828647810420494 9.506951419625848 -1 0 0
2950 784 3 0.752 17.112120597257547 7.201784905232136 8.616718656187174 -1 0 0
2674 692 3 0.752 17.14190232159086 5.847894666907895 4.738751077151299 0 0 2
3580 994 3 0.752 8.126263831705685 2.4723543088846713 1.7702675888666097 0 1 1
2131 511 3 0.752 13.465971007652367 9.730216231708871 9.419827179978588 -1 1 2
2133 511 4 -0.376 14.356328502271918 10.410441975817358 9.433249909415377 -1 1 2
2132 511 4 -0.376 12.693407056868336 8.78367022712472 9.481094517531208 -1 1 2
984 197 2 0.13 12.803104436601847 5.187538407075726 7.4829258031293095 1 2 0
2600 667 4 -0.376 14.011323221736873 11.048818672969151 3.8490861987547342 1 -1 0
2675 692 4 -0.376 17.385570899994875 4.67323765312519 4.613226815725435 0 0 2
1626 342 4 -0.376 12.867299077280252 3.9905500397067364 12.385159394869948 1 1 1
2572 658 3 0.752 18.030994843858643 3.8419356329222616 9.489187593793996 -1 1 0
3582 994 4 -0.376 8.322383659622096 1.5440042675028007 2.423010328785626 0 1 1
2702 701 4 -0.376 2.7046467438964203 10.81336733393396 1.4843237892789014 2 2 2
2299 567 3 0.752 21.744605495273127 19.579467570024942 13.266711070745645 0 1 0
427 86 2 0.13 16.0584021671543 11.191153616970473 13.160986122776194 -1 1 2
428 86 2 0.13 17.66057308257738 11.066224552922238 12.42843618912573 -1 1 2
930 186 2 0.13 21.520690354719378 4.845393390134639 2.0959959274449336 0 1 -1
429 86 2 0.13 16.037031166082564 10.41328261504487 11.521318471122857 -1 1 2
928 186 2 0.13 20.060353506135485 4.10522469332051 2.8478691722826044 0 1 -1
148 30 2 0.13 39.01028979069713 19.950975744545882 5.056732109868924 1 1 0
1561 321 3 0.752 10.363485924544603 8.808716186411118 10.943400353823309 1 1 1
1785 395 4 -0.376 23.02330466589531 2.004029109334345 9.358552666974408 1 1 1
372 75 2 0.13 15.230350325573387 10.04473953154873 6.442764913516173 1 2 1
375 75 2 0.13 15.80608378933805 9.390250665217174 7.784665310589232 1 2 1
374 75 2 0.13 15.100024466275885 8.447569454222197 6.467224779284954 1 2 1
371 75 1 -0.52 15.72563855228674 9.1359916534754 6.747416223881116 1 2 1
373 75 2 0.13 16.670679909073886 9.126530228051527 6.288972967280792 1 2 1
629 126 2 0.13 28.993308521036038 9.83378497911145 3.7792368763044775 1 0 1
1269 254 2 0.13 1.6493425196321212 14.441634146221315 1.6657040546434922 2 1 1
1562 321 4 -0.376 10.30004223915706 8.407531443376937 12.036874292000412 1 1 1
1336 268 1 -0.52 14.097126192310437 4.256880928450634 2.9511201263237883 2 2 1
324 65 2 0.13 26.394387203789744 1.2309079247201737 9.812852474601064 2 1 1
1037 208 2 0.13 19.579241692879968 11.554399458185554 4.100257422649197 0 2 1
860 172 2 0.13 17.23021814517341 9.831117223283671 9.298978682141504 1 0 -1
856 172 1 -0.52 18.22417864088623 10.447446045032589 9.361300896428578 1 0 -1
859 172 2 0.13 18.91754973043438 9.752016781569647 9.95403408606127 1 0 -1
1307 262 2 0.13 31.505628989629066 15.505357607869653 1.385253799513296 1 2 1
927 186 2 0.13 20.98306718768639 5.36831333133557 3.7000535621945563 0 1 -1
2676 692 4 -0.376 17.04447112106783 6.966584120051149 4.927152201320129 0 0 2
1783 395 3 0.752 22.18966800728168 1.2456041097125563 8.943204585853103 1 1 1
1297 260 2 0.13 7.06226336438257 10.237371691350665 8.075750870716089 1 1 1
1300 260 2 0.13 8.656639438857695 9.357764925815456 7.80777411968705 1 1 1
3577 993 3 0.752 16.978779435393744 12.108815822461702 6.135170563299981 -1 1 0
2951 784 4 -0.376 16.58602829743583 6.730618434789146 7.782074044425932 -1 0 0
894 179 2 0.13 32.99407817800097 12.506735876119484 13.450976996681387 -1 1 0
3579 993 4 -0.376 17.982472603482982 11.413848676302823 6.165836777885166 -1 1 0
3375 925 4 -0.376 12.605002979379046 11.095976641464814 11.248910730297364 -1 0 1
2384 595 4 -0.376 20.52377006026179 9.069709313660104 6.348784238087368 0 2 1
858 172 2 0.13 18.113336903881876 11.475408974044962 9.818435271043532 1 0 -1
3596 999 4 -0.376 7.368611111361536 11.318897756384704 4.493940082584842 1 2 1
1038 208 2 0.13 18.984823389888803 12.892138462168184 3.11547157118373 0 2 1
1058 212 2 0.13 1.465346883261119 18.95344840622184 7.005432956616737 2 -1 0
1293 259 2 0.13 26.12106418791461 5.515039041632351 1.9909315735055009 0 0 2
2970 790 4 -0.376 28.694089525887936 1.821747430651689 4.369075361588466 0 1 1
2969 790 4 -0.376 26.64361545584029 2.4029692014267328 3.381869588888938 0 1 1
2671 691 3 0.752 34.415081786257346 19.621105701392498 3.9802220384489844 -1 0 1
2050 484 3 0.752 29.743293477890784 1.9069835463034537 12.959004705078064 -1 0 2
1429 286 2 0.13 6.354377608451122 5.377993657407897 2.9359002949103687 2 0 0
929 186 2 0.13 21.74450476892348 3.9882842512724865 3.5932056763788456 0 1 -1
1686 362 4 -0.376 32.853469694991446 19.605224066569182 10.90110624028911 0 3 2
1084 217 2 0.13 29.04140475581972 7.59783873384573 11.311389763111837 2 0 1
1039 208 2 0.13 20.687089881722216 12.051818184688464 2.737558468495936 0 2 1
2574 658 4 -0.376 19.06248669770161 3.9306201454119583 10.05288502310786 -1 1 0
1292 259 2 0.13 27.834431272990354 4.745373894527138 1.8959666559428858 0 0 2
1725 375 4 -0.376 3.0799792748306345 1.3326960161364432 5.175907819866709 0 1 1
2968 790 3 0.752 27.679862505874 2.1830953741005557 3.8048488483590144 0 1 1
3267 889 4 -0.376 19.58131355712403 6.887323134732711 4.5782292137093865 2 0 -1
1310 262 2 0.13 31.33011893524481 17.072137777432392 2.2242735572288344 1 2 1
1295 259 2 0.13 27.08376941250265 5.113028303279559 3.555560890724104 0 0 2
2634 678 4 -0.376 24.349949163030416 3.649951710984125 1.6989829152440408 -1 1 -1
1622 341 4 -0.376 23.12319264173923 6.9384893313480305 2.964418013915425 1 2 1
1623 341 4 -0.376 24.03542482210625 5.001430440849286 4.011880317184527 1 2 1
2381 594 4 -0.376 12.87569843435799 18.68211404143217 6.4621032802917755 0 0 1
1621 341 3 0.752 23.436667177587125 5.890504708681251 3.4117316296595477 1 2 1
3266 889 4 -0.376 19.95951415905004 6.4904289811133955 6.867734960284744 2 0 -1
3463 955 3 0.752 12.936225839827804 1.3159380580674238 8.614156279162113 1 1 1
321 65 1 -0.52 26.074316151331807 1.0205434819764867 8.673750484743945 2 1 1
2678 693 4 -0.376 25.114989234750112 10.349004287233571 2.640868741296827 -1 0 0
2379 593 4 -0.376 22.417232065442093 14.540011631645433 1.2035392552561524 0 1 1
103 21 2 0.13 31.74695664039392 7.996288130908606 2.6806012814841123 0 0 1
2517 639 4 -0.376 23.44951182459141 5.330790432367571 7.850336475662309 -1 1 2
2677 693 3 0.752 24.323050883607646 9.973849075865271 3.401498889505772 -1 0 0
2679 693 4 -0.376 23.529756568113772 9.62465176914283 4.169145664042441 -1 0 0
630 126 2 0.13 29.058990327108486 9.706056880326797 5.364263882869606 1 0 1
2440 614 3 0.752 28.070792106834258 4.026514757209842 10.09749103147218 0 1 2
2441 614 4 -0.376 28.03860437723135 3.7918443484927877 8.948682505740917 0 1 2
2442 614 4 -0.376 28.20077582510103 4.310832176160858 11.194007765073367 0 1 2
448 90 2 0.13 28.353270494620375 10.328657243010905 1.5174027501878613 0 1 2
2515 639 3 0.752 22.567660524635922 4.543284967726971 8.061907426189594 -1 1 2
2516 639 4 -0.376 21.718309002092482 3.7336839734527065 7.986799247074983 -1 1 2
3265 889 3 0.752 19.75271518109194 6.780281578333476 5.720768414417995 2 0 -1
361 73 1 -0.52 27.25183146149626 6.133499507486771 13.17992655635309 -1 1 1
365 73 2 0.13 26.691442250122147 6.9842878405926685 13.607327796933815 -1 1 1
2916 772 4 -0.376 35.819413648356694 16.171480170624193 6.275886236357766 -1 1 -1
1533 311 4 -0.376 25.14063692110596 11.314638316291948 5.489474542442697 -1 1 1
1531 311 3 0.752 25.946525454246267 12.027008599603294 5.15173021109557 -1 1 1
957 192 2 0.13 4.506017800434842 16.221036051031657 1.2441304925186774 0 -1 1
725 145 2 0.13 18.975079603341083 1.4111016480213416 4.069398962951027 0 1 2
588 118 2 0.13 24.4157516505515 8.693905730869062 6.7473418785578225 0 0 1
2871 757 4 -0.376 33.361715738336514 1.1118405339732 7.88780428799765 1 2 1
723 145 2 0.13 18.09183915837323 1.4509035597889424 2.513959978047591 0 1 2
2128 510 3 0.752 25.331550622728397 13.29777221320081 2.1653427763784245 -1 0 2
1766 389 4 -0.376 26.08752155522977 8.169836053831549 1.072019886557323 -1 1 1
2997 799 4 -0.376 17.810513871527107 5.945587401977714 11.723852273454382 0 1 2
2129 510 4 -0.376 24.44341906569288 13.33086484719791 2.9822850536762204 -1 0 2
364 73 2 0.13 26.595969378243037 5.330838757125449 13.104271919143816 -1 1 1
2130 510 4 -0.376 25.983737368141803 13.034168407301127 1.2831973787468254 -1 0 2
2949 783 4 -0.376 26.366619455237817 1.893869687586996 12.476185694758511 0 1 0
2836 746 3 0.752 28.887206290904928 6.182371374357251 6.748093130756422 -1 1 0
2838 746 4 -0.376 27.956497219608522 5.666037659391713 6.282479313409863 -1 1 0
1291 259 1 -0.52 27.066326064458437 5.319109717415878 2.3982595091707726 0 0 2
724 145 2 0.13 17.395891278327362 1.5698364665207438 4.223544827821792 0 1 2
1426 286 1 -0.52 7.099358454384173 6.1087394003920545 2.5613932426784394 2 0 0
105 21 2 0.13 33.18418834389434 8.836703297341582 1.5671307803517953 0 0 1
362 73 2 0.13 27.55630026762554 6.479586336301941 12.176165981744749 -1 1 1
2632 678 3 0.752 25.24502245948776 3.0118964486106576 1.2401917459033927 -1 1 -1
2936 779 4 -0.376 22.446561136344616 1.8010414559733232 3.875547313805091 2 2 1
1081 217 1 -0.52 29.175944795069864 8.447243205845199 10.661050449432315 2 0 1
406 82 1 -0.52 25.744719608580354 10.992612833369611 9.912788335127585 -1 1 0
410 82 2 0.13 26.208739858696433 10.017755252008548 9.561745482291299 -1 1 0
1082 217 2 0.13 28.96914186061692 8.053121858621886 9.680812066208684 2 0 1
960 192 2 0.13 4.496201280989881 18.062682702696684 1.087929014732529 0 -1 1
1294 259 2 0.13 27.254233633527388 6.296077933352853 2.3906667703904967 0 0 2
1416 284 1 -0.52 13.675049741652023 8.394031773130695 12.326912502735462 1 1 2
836 168 1 -0.52 24.126512077100198 8.004651072808606 12.489963292330618 0 0 2
408 82 2 0.13 25.845927000215575 11.621316078952809 9.02308973116229 -1 1 0
159 32 2 0.13 14.740998414462474 5.142644505521832 10.425171355089347 2 1 0
589 118 2 0.13 24.47193208857425 7.882523717914599 5.33663294804578 0 0 1
586 118 1 -0.52 24.20322586622427 7.731323723148989 6.303480436163283 0 0 1
590 118 2 0.13 24.99630670504291 6.93450973672164 6.472665420584282 0 0 1
587 118 2 0.13 23.098284043117513 7.522643934923067 6.466535484943546 0 0 1
2504 635 4 -0.376 38.1442861906192 11.277752545449133 2.5106412119805928 0 1 2
1285 257 2 0.13 22.300569812864676 9.255981392433968 10.558959015748757 -2 2 0
1085 217 2 0.13 28.49285562336439 9.294482884554279 10.885527132426512 2 0 1
2995 799 3 0.752 18.365884334274146 6.608334700640078 12.419501546642035 0 1 2
2090 497 4 -0.376 32.41953935201025 6.141366880658961 11.763364229793652 0 0 0
409 82 2 0.13 24.587385249197826 10.98102338915321 10.245928677514131 -1 1 0
1083 217 2 0.13 30.141421530112737 9.00336273263396 10.589907716167005 2 0 1
1759 387 3 0.752 22.328856113826625 9.133242930052539 1.476493988504478 1 1 0
580 116 2 0.13 6.940905738090292 2.2422444714232057 4.337424633624471 -1 2 2
3474 958 4 -0.376 32.76128404414474 3.444625133818504 9.601864603572787 -1 0 1
2935 779 3 0.752 22.239324564203493 1.7876805118948054 2.789995169241624 2 2 1
1338 268 2 0.13 13.600161105810246 4.928768334170622 3.6305191452295014 2 2 1
219 44 2 0.13 16.287391535840456 18.03754054493543 11.722224242733521 1 3 0
1057 212 2 0.13 38.7010817201495 19.511504485745952 8.468153411563268 1 -1 0
3473 958 4 -0.376 30.879368192112512 4.6916102144625365 10.114227626676664 -1 0 1
3337 913 3 0.752 32.54012794244372 1.4575976677427473 4.790943917720799 -1 0 1
1268 254 2 0.13 38.16077687242767 15.156402101552072 1.3295653837529697 1 1 1
994 199 2 0.13 15.676930759837191 4.656706938808413 12.522133236460252 -1 1 0
104 21 2 0.13 33.307943913841676 7.14907829697411 2.2579203392730225 0 0 1
2837 746 4 -0.376 29.65997829008734 6.680976802009934 7.438994353835651 -1 1 0
2051 484 4 -0.376 29.751822868777126 1.322897782679858 11.979076039482724 -1 0 2
101 21 1 -0.52 32.922024838099475 8.186176259290855 2.507065967507974 0 0 1
3096 832 4 -0.376 35.92023165573851 1.5243737859400868 6.895705271912696 0 1 2
979 196 2 0.13 31.887140308883726 6.619999028458 4.88889137123698 0 2 0
3095 832 4 -0.376 34.1126724815569 2.990121299020779 6.273829490147744 0 1 2
980 196 2 0.13 30.607121322978415 5.314977949721656 5.2742773398932785 0 2 0
3094 832 3 0.752 34.97215561839429 2.1769463299284446 6.602213450366831 0 1 2
2817 739 4 -0.376 38.81807588133332 4.095032266392085 6.178711580769693 -1 1 1
3338 913 4 -0.376 32.51090509878592 2.31655050585168 4.064436590293899 -1 0 1
976 196 1 -0.52 31.659367642910773 5.759809237032041 5.426627687293901 0 2 0
978 196 2 0.13 32.58450481957449 5.146453385938418 5.20294791839608 0 2 0
3253 885 3 0.752 38.79466014662869 7.744870324847882 8.668174871585007 0 1 0
2229 543 4 -0.376 36.89957539331191 5.310629528303697 9.0397749191155 0 0 2
2578 660 3 0.752 34.92321341036766 8.09720130035386 6.413768830981526 -1 2 1
2580 660 4 -0.376 34.264719109304814 8.209826918158695 5.455118171352295 -1 2 1
2579 660 4 -0.376 35.65684441059252 8.109859255347125 7.371300438540321 -1 2 1
2228 543 4 -0.376 35.393006371848124 5.166307005986654 7.316522538149817 0 0 2
2227 543 3 0.752 36.04596298514458 5.111825261929803 8.226882575840158 0 0 2
2816 739 4 -0.376 37.41415634778735 5.941165489245653 5.915293995770137 -1 1 1
2815 739 3 0.752 38.19051682269144 5.030382386052001 5.958321932545423 -1 1 1
1697 366 4 -0.376 32.563436877528126 10.847262387340972 6.76874393567774 -2 1 -1
612 123 2 0.13 37.02852340653577 9.92419576925996 5.7718430950073 0 0 2
3255 885 4 -0.376 1.1464145818999494 6.727849628407991 8.261937770868581 1 1 0
2205 535 4 -0.376 38.07945271534721 3.2695382158781436 3.422908648346681 0 0 3
1543 315 3 0.752 34.41013906243205 3.4703098549700138 13.46026708099613 -2 0 1
3021 807 4 -0.376 34.1750484785847 9.45989524793119 13.226687344574387 0 0 0
1309 262 2 0.13 32.93322641830166 16.423728211450047 1.9742728077983045 1 2 1
2380 594 3 0.752 13.218993994753653 19.050360654002695 5.495115592936036 0 0 1
3472 958 3 0.752 31.778176055671054 4.050678391693131 9.743482920479199 -1 0 1
2937 779 4 -0.376 21.84124251348999 1.8272661382662543 1.6419711701164954 2 2 1
1947 449 4 -0.376 35.20268399743299 5.935189170911266 12.754829189858597 1 1 0
1053 211 2 0.13 32.88422174828189 6.463840786177105 9.563304752958075 0 1 1
2503 635 3 0.752 37.72156822613873 12.164359297791593 2.0021132534435617 0 1 2
1052 211 2 0.13 31.908886093545604 8.02921569615436 9.327907768293114 0 1 1
3398 933 4 -0.376 34.04331456019477 4.266953892581604 2.3443668966915485 -1 2 0
1055 211 2 0.13 31.546615738363364 6.44039349373499 8.469606430856288 0 1 1
1051 211 1 -0.52 32.29244215257738 7.070542137037956 8.857655313627609 0 1 1
1054 211 2 0.13 32.98085022898966 7.288685931624169 8.039369401323608 0 1 1
977 196 2 0.13 31.785957011861296 6.1231126188416765 6.555427242647743 0 2 0
1636 346 3 0.752 36.08709182127831 8.790194640727506 3.2589509714265574 0 3 1
3410 937 4 -0.376 5.087025348238618 12.247880002385298 4.9236253606186215 1 2 2
1637 346 4 -0.376 36.41039258045494 7.704704597693213 3.3162019649762318 0 3 1
1856 419 4 -0.376 3.2265120259731974 4.256395251420231 1.8757552375129396 0 1 0
1638 346 4 -0.376 35.75601287986871 9.88603028286671 3.038460049749851 0 3 1
3521 974 4 -0.376 35.033224556357986 9.352529047512471 10.677336612360554 0 1 0
1545 315 4 -0.376 35.323309980129885 3.0957131686321224 12.843631537882287 -2 0 1
1962 454 4 -0.376 28.959472693825894 18.753225082145068 11.76574845716172 1 -1 1
1946 449 4 -0.376 36.92191213452844 6.7262245529202005 11.48626921260128 1 1 0
228 46 2 0.13 13.527729318909808 13.999400314348884 9.348504694344458 1 1 0
2808 736 4 -0.376 3.76290343875621 9.798999410721429 3.9929395952771833 0 0 1
1925 442 4 -0.376 6.245238564736376 13.016627974406275 11.905367094963283 2 1 0
1924 442 3 0.752 6.085143854685532 12.125502897923777 11.167064413981125 2 1 0
227 46 2 0.13 13.389422052710838 15.68650542468592 9.004755314068492 1 1 0
3459 953 4 -0.376 1.9850030046193012 17.792010992851573 3.756910246002705 1 0 1
160 32 2 0.13 13.664264632933465 4.129805293345479 9.298196403050506 2 1 0
578 116 2 0.13 6.002060565058323 3.4570252962348547 3.531194780510604 -1 2 2
1271 255 1 -0.52 16.221631893487707 9.832875606224661 1.9526024736884837 0 0 1
1730 377 4 -0.376 30.205354463732 4.279812900434383 1.2529124314176114 0 1 0
1340 268 2 0.13 14.978897071109902 3.8414459339505345 3.3616721154075164 2 2 1
893 179 2 0.13 33.03070468303343 13.272502290759675 11.908562836270715 -1 1 0
157 32 2 0.13 13.872416208690488 5.947322922392783 9.009350965194358 2 1 0
3225 875 4 -0.376 10.897516302621058 14.301877511025815 3.0574454419844823 0 0 2
323 65 2 0.13 26.713967866692933 1.640802579281914 7.952623459649244 2 1 1
2666 689 4 -0.376 38.914440940571076 13.230852555220054 12.034931554254129 0 0 1
1926 442 4 -0.376 5.7917952418663585 11.270187751360357 10.476709665497586 2 1 0
3016 806 3 0.752 10.294984468499075 12.762776953261321 9.710499173746923 1 1 0
3018 806 4 -0.376 9.579860804828101 12.115066298839386 10.300336848238299 1 1 0
3017 806 4 -0.376 11.041326436303734 13.369336827040303 9.023430173403218 1 1 0
3223 875 3 0.752 10.023578310661144 13.937509539220423 3.780559201981938 0 0 2
2180 527 4 -0.376 25.365165525560545 18.412869338732072 12.970087011247708 -1 -1 1
3356 919 4 -0.376 3.1891812725902753 16.325634013071678 8.136496411964478 0 1 2
2447 616 4 -0.376 36.36109651356104 16.543610840920117 12.598979181608936 -1 2 1
576 116 1 -0.52 6.232212982763328 2.9905614377795184 4.4637983259543965 -1 2 2
1680 360 4 -0.376 1.29141869014793 8.68879096394447 2.510628762058232 0 -1 1
1855 419 3 0.752 2.205977544171581 3.920222563336208 1.4765145308842236 0 1 0
1153 231 2 0.13 27.867649727631463 12.374335795190914 13.288936411281817 1 1 1
2699 700 4 -0.376 4.473662495905691 13.512176064044725 7.0404158096490095 0 0 1
2698 700 3 0.752 5.419592354009439 13.73498845892321 7.732820670948486 0 0 1
2700 700 4 -0.376 6.359845819845337 13.8178693953053 8.445710310317073 0 0 1
1996 466 3 0.752 5.767041584427807 15.902902529965981 12.98604269888945 2 0 1
2421 607 4 -0.376 5.485929859208637 17.448315608365252 4.161217670265124 2 -1 1
1997 466 4 -0.376 5.6043953918136005 16.947755299413767 12.548767736333652 2 0 1
2446 616 3 0.752 36.668428165813026 17.653072580275435 12.878876248353668 -1 2 1
2419 607 3 0.752 6.424716270259091 17.040242662124168 4.6545879310518545 2 -1 1
2420 607 4 -0.376 7.2925415095491175 16.532737014233085 5.205832495985438 2 -1 1
2531 644 4 -0.376 38.60947461247711 17.385256840314913 5.889849780705055 -1 2 2
2530 644 3 0.752 38.35664685178694 16.286162194547344 5.804817328733882 -1 2 2
2238 546 4 -0.376 2.9039996672781605 17.936585200528718 12.86447064464843 0 1 0
3411 937 4 -0.376 5.341515446652587 14.546044183985652 4.573531632088627 1 2 2
3409 937 3 0.752 5.107070523760882 13.475377648424324 4.679518321645587 1 2 2
1625 342 4 -0.376 12.132458870159972 1.8661551501657332 11.785342107788706 1 1 1
2236 546 3 0.752 2.8166920514570633 18.072875409069496 11.73162791719718 0 1 0
2237 546 4 -0.376 2.580447378511547 17.869441086905685 10.534398116884457 0 1 0
229 46 2 0.13 14.292292388696648 15.188302104948386 10.509499724640952 1 1 0
3355 919 3 0.752 3.437639872573486 16.98964551930394 7.217327595179108 0 1 2
439 88 2 0.13 9.639758196245976 5.856543284355197 12.9892103736148 0 0 0
3357 919 4 -0.376 3.449683106222051 17.722229506091782 6.346559073281465 0 1 2
226 46 1 -0.52 14.104862768444475 15.027428143809468 9.520948159801435 1 1 0
1133 227 2 0.13 15.947178304328995 14.759358978656387 12.517282409551505 2 0 0
2532 644 4 -0.376 38.27851959985815 15.164724875297283 5.460523057587342 -1 2 2
230 46 2 0.13 15.025151950193163 14.752870946766661 9.030758105104493 1 1 0
1136 228 1 -0.52 8.207183872498755 15.563295883273941 10.75610009973073 2 0 0
2667 689 4 -0.376 1.6683026132774164 15.134495944427753 13.102134740114538 1 0 1
1428 286 2 0.13 8.137427218397578 5.851534880830434 2.750051350256694 2 0 0
1040 208 2 0.13 20.403671622220717 13.08290981338785 4.060798811756395 0 2 1
2459 620 4 -0.376 25.22222226456047 19.180673739848935 7.627609922221053 2 1 2
1138 228 2 0.13 8.630333032338228 16.460047792256166 11.076167002265919 2 0 0
3307 903 3 0.752 7.793947455298553 16.30159043954158 1.2103701108373792 1 1 1
3308 903 4 -0.376 7.169656148602521 16.752433765379294 2.0586994569480064 1 1 1
1949 450 4 -0.376 11.7029652318095 17.36456097337665 9.926163833588944 0 1 2
1948 450 3 0.752 12.64683882620583 17.877090566137422 10.358268618839467 0 1 2
1950 450 4 -0.376 13.642471419564991 18.344209643089194 10.681360696807518 0 1 2
156 32 1 -0.52 13.849885155973904 5.174638502748568 9.845010265290048 2 1 0
200 40 2 0.13 9.091215856002782 18.535896043844893 8.892833758826683 0 0 2
338 68 2 0.13 37.867348533232416 10.80374422999987 12.572696405980652 0 2 1
197 40 2 0.13 7.844564379918515 17.679475055291267 7.781132995625858 0 0 2
198 40 2 0.13 8.20993812127703 19.373219067609973 7.757229315670587 0 0 2
196 40 1 -0.52 8.65035536074866 18.377817257418574 7.901637518330094 0 0 2
199 40 2 0.13 9.435086704764723 18.05204576050085 7.20725780278881 0 0 2
2933 778 4 -0.376 25.26885177494317 1.374856538149835 5.401616805010696 -1 -1 2