LAMMPS data file via write_data, version 8 Feb 2023, timestep = 50000

3600 atoms
4 atom types
2600 bonds
2 bond types
2500 angles
2 angle types

0.6177910041034202 39.38220899589517 xlo xhi
0.6177910041034202 39.38220899589517 ylo yhi
0.6177910041034202 39.38220899589517 zlo zhi

Masses

1 12.0107
2 1.00794
3 12.0107
4 15.9994

Pair Coeffs # lj/cut/coul/long

1 0.0663015 3.58118
2 0.0282937 2.37341
3 0.245018 2.81144
4 0.412295 2.62585

Bond Coeffs # harmonic

1 349.274 1.09
2 1063.58 1.17

Angle Coeffs # harmonic

1 47.4817 109.5
2 48.24 180

Atoms # full

156 32 1 -0.52 3.8517161516190015 11.378064665054303 6.536664027600633 0 0 1
159 32 2 0.13 4.160747097188265 10.904112615628229 7.46593396992175 0 0 1
157 32 2 0.13 4.671610017575893 11.21402385228617 5.906553162858865 0 0 1
158 32 2 0.13 3.57020310003546 12.395333836520424 6.5975675501019895 0 0 1
160 32 2 0.13 3.0117345957765296 10.716349692328956 6.317305309913409 0 0 1
3464 955 4 -0.376 3.096860077747038 3.196377641355536 2.205418361501985 1 0 1
2689 697 3 0.752 32.18407270752785 0.9846584714340885 11.744621377408448 1 2 0
1312 263 2 0.13 12.406484117742465 10.044082485001729 4.38707072880675 1 1 2
1313 263 2 0.13 13.571514560540953 10.52871096894184 5.614987561388434 1 1 2
867 174 2 0.13 9.768682767481438 8.110212486368871 3.9116945440459667 0 1 0
3463 955 3 0.752 2.5770127327648122 2.300564478810327 2.8507115332877415 1 0 1
3395 932 4 -0.376 6.165396620668033 13.498831264462476 7.641718839689258 2 1 0
3141 847 4 -0.376 5.000218388580792 3.3983625274474942 4.104538705363337 1 0 1
3555 985 4 -0.376 2.3235308870512337 6.513205788903461 11.658812198668533 0 1 1
3553 985 3 0.752 2.108575460564364 7.578345034773048 12.023638087017874 0 1 1
625 125 2 0.13 5.209722524604316 7.1309865084931285 11.276678229654173 0 0 2
623 125 2 0.13 6.6514364367905054 7.950844152909666 12.285543701150562 0 0 2
162 33 2 0.13 11.316939575069817 18.880498609817867 0.9035521791628118 0 1 2
621 125 1 -0.52 5.875078352874143 7.098737313223277 12.126262133474281 0 0 2
622 125 2 0.13 6.187279336795526 6.017831589874279 12.245848698299673 0 0 2
1397 280 2 0.13 17.08219256863085 6.29196907049935 1.111476857463352 0 1 2
3139 847 3 0.752 5.475180165338685 2.357172016916776 3.937865653876146 1 0 1
1396 280 1 -0.52 17.93331419020137 6.8084270027011335 0.8884922573238165 0 1 2
3369 923 4 -0.376 3.711309338546519 5.88349523688107 4.152637440225652 1 2 1
2447 616 4 -0.376 16.884169330350296 16.15164948735164 2.9012671564016395 0 1 0
165 33 2 0.13 10.47184069221475 19.01960169975327 2.586183388033657 0 1 2
3554 985 4 -0.376 1.8515583392214836 8.606784377918844 12.402298733801752 0 1 1
2214 538 4 -0.376 4.606149651591501 4.485953208644782 12.802491983869507 1 0 1
2262 554 4 -0.376 19.634068200300543 2.359044964314946 11.33316399358316 1 1 1
897 180 2 0.13 32.42842044155598 17.677736561332296 9.489421774730035 -2 2 1
869 174 2 0.13 10.04748086215096 8.276379597445512 5.763403579491898 0 1 0
866 174 1 -0.52 9.812251104994369 7.674137175255969 4.866748319332947 0 1 0
868 174 2 0.13 8.984527558235738 6.993644287904146 5.185738237816701 0 1 0
3367 923 3 0.752 4.624284612358754 6.079808073849809 3.4853437091484833 1 2 1
1011 203 1 -0.52 10.938303712893305 3.9176243803597375 9.423796422671236 2 0 1
1014 203 2 0.13 10.456834295011074 3.254089079424282 8.747923407800329 2 0 1
1659 353 4 -0.376 4.173989101546325 5.530919904577099 9.751374423074637 1 1 0
1658 353 4 -0.376 3.412237627461686 3.634589311128074 8.679626773024683 1 1 0
1657 353 3 0.752 3.709605378377171 4.552565994100525 9.284695285844396 1 1 0
2510 637 4 -0.376 6.339230722663611 3.315000438188304 7.38647530020495 1 2 0
2509 637 3 0.752 6.4940335347366975 2.1244564249010596 7.482506927906437 1 2 0
2435 612 4 -0.376 11.56818425281733 15.37666186419333 1.9927460444181209 -1 2 1
1289 258 2 0.13 8.852319840752857 9.01530169555868 1.148477961469807 0 1 2
728 146 2 0.13 1.4214116973325315 17.20435988580891 1.901418584711204 1 1 2
3140 847 4 -0.376 5.95148862724262 1.2407984041051168 3.9064087650920025 1 0 1
2731 711 3 0.752 20.980168444093984 19.236323375585965 1.2062125186020416 0 1 0
2652 684 4 -0.376 29.63896591147439 1.179761535976878 3.1671984681463856 -1 1 1
656 132 1 -0.52 20.28050002088869 1.3958829617528603 1.6364382387974215 1 1 0
3465 955 4 -0.376 2.0772563260333436 1.6680611879015843 3.5883779383014374 1 0 1
3430 944 3 0.752 7.25009181030917 1.896888772011681 12.765200841009792 0 0 2
1123 225 2 0.13 38.70066512730453 18.212482469511393 2.7640575674166863 -1 0 1
1316 264 1 -0.52 8.253496676245554 1.2645207045443794 1.935486406709149 -1 0 2
3153 851 4 -0.376 5.4499599622888475 9.787272545020471 9.859612888066453 1 0 1
3151 851 3 0.752 5.252227962003653 10.273777025338147 10.837634263503771 1 0 1
3152 851 4 -0.376 4.955292251534957 10.589003574331146 11.90292232487833 1 0 1
782 157 2 0.13 35.85003773770285 14.373193896049685 2.8998073774408177 0 0 3
3368 923 4 -0.376 5.394996496985862 6.288739075147306 2.6129066108548598 1 2 1
2584 662 3 0.752 31.17428247061107 0.807489824722531 6.069096853966591 0 1 2
3432 944 4 -0.376 8.139192766557649 1.6961847209788141 12.017091673438486 0 0 2
480 96 2 0.13 2.1505384153591285 1.2041605349710238 5.954363735056156 1 1 1
1121 225 1 -0.52 38.53119782798328 19.200206136390083 2.317891921016554 -1 0 1
2093 498 4 -0.376 23.52040152855827 2.158967287295721 0.8181886647370794 -1 1 0
1939 447 3 0.752 23.087629273718566 2.187357222063971 5.450967172016078 0 0 1
3383 928 4 -0.376 27.093344363613657 5.055321039786786 0.9791805635238906 0 2 2
3512 971 4 -0.376 15.67703091180203 1.8986039436771547 4.052642492278087 0 1 0
42 9 2 0.13 14.66185635690894 7.979656586934153 12.32491982276486 -1 2 1
870 174 2 0.13 10.73044060464032 7.05268980886764 4.889933208023215 0 1 0
3511 971 3 0.752 16.025418158458955 2.5573628818153313 4.924574757474664 0 1 0
135 27 2 0.13 6.504924887427307 7.942536222963539 8.093458049500827 -1 2 1
134 27 2 0.13 5.487699017355287 7.670359276911754 9.386313772737493 -1 2 1
131 27 1 -0.52 5.824326980688179 7.236873309145827 8.438928632848997 -1 2 1
132 27 2 0.13 4.953979948577339 7.074089383854948 7.8477692727870085 -1 2 1
3322 908 3 0.752 30.53361217119387 3.4057404633969157 3.325033156358121 -1 1 2
8 2 2 0.13 13.365794123217654 18.570806138819442 11.864006345114529 0 0 1
1012 203 2 0.13 11.879955459511422 4.247022013673632 9.075906709525134 2 0 1
1015 203 2 0.13 10.482108354582437 4.855383347086824 9.60479008176753 2 0 1
1013 203 2 0.13 11.077200821685786 3.437708771962522 10.425318090701785 2 0 1
163 33 2 0.13 11.621839980377844 17.587522685192997 2.074545345492357 0 1 2
2448 616 4 -0.376 18.557851418258444 17.26422959511532 1.7799246801183066 0 1 0
1459 292 2 0.13 11.411943317478501 1.661942844536909 11.029769433674987 0 0 1
492 99 2 0.13 22.250120576015572 5.797926608298412 9.609798831777399 -1 0 1
2002 468 3 0.752 12.355901558814129 6.4501634273804935 7.745397857633814 1 1 -1
1804 402 3 0.752 5.777843388889679 15.81017571655146 2.213820590316667 1 0 2
2004 468 4 -0.376 11.345500421761294 6.106756548823865 7.380596230498806 1 1 -1
188 38 2 0.13 18.868958096836472 8.985715496129298 5.56006286643757 1 1 0
187 38 2 0.13 20.39849477651048 9.20031728644384 6.536858309699613 1 1 0
186 38 1 -0.52 19.887204145305382 8.496458332676411 5.978433784007457 1 1 0
494 99 2 0.13 21.152813270661287 4.551648211801842 9.339670927926965 -1 0 1
493 99 2 0.13 20.603055543087077 6.199079928787363 9.127077436352137 -1 0 1
491 99 1 -0.52 21.51409602792385 5.468829579933328 8.93991573580535 -1 0 1
495 99 2 0.13 21.9839517057913 5.466476085897875 7.9367288650484396 -1 0 1
3581 994 4 -0.376 20.233881275567796 4.297289609019732 6.103672847581858 1 2 -1
3582 994 4 -0.376 18.934071058021903 2.5667993071437065 5.407078958388282 1 2 -1
3580 994 3 0.752 19.65878280935068 3.4316371561209795 5.714708246069897 1 2 -1
2003 468 4 -0.376 13.201968111313036 7.162048818174264 8.037119103792126 1 1 -1
752 151 2 0.13 13.780963958350176 11.007905135611399 9.797669038228438 0 1 0
755 151 2 0.13 12.192031431257782 11.307046240540851 9.054174557156626 0 1 0
751 151 1 -0.52 12.83304855737448 10.588777247860767 9.474306555460794 0 1 0
754 151 2 0.13 12.977564366542058 9.921665354746931 8.625242152797279 0 1 0
2400 600 4 -0.376 19.650115861459305 10.643875711141444 9.57632150270758 1 1 0
2434 612 3 0.752 11.794807627159567 15.437436519289067 0.8095904398657353 -1 2 1
1319 264 2 0.13 9.290867101099295 1.2764222437268886 1.3760065571556912 -1 0 2
133 27 2 0.13 6.438556348160639 6.346976068145233 8.966877827276686 -1 2 1
2358 586 4 -0.376 13.364655982350937 3.8389995739082594 6.862443213152822 1 1 2
2356 586 3 0.752 12.309946773410413 3.465076658086251 6.6978394231117395 1 1 2
3513 971 4 -0.376 16.466737577754134 3.409887920101213 5.713862916389898 0 1 0
7 2 2 0.13 12.602414966770692 17.441321091343443 12.896788191745365 0 0 1
2446 616 3 0.752 17.709682582465526 16.639169061213842 2.410381207544556 0 1 0
2399 600 4 -0.376 19.344827463182522 8.291931481398423 9.26613156985301 1 1 0
2398 600 3 0.752 19.524714131375266 9.40956496486008 9.47799708725816 1 1 0
1460 292 2 0.13 12.925225788303758 1.0178863583279927 10.6385748519176 0 0 1
896 180 1 -0.52 31.585717449019217 18.309311677321414 9.580957164397109 -2 2 1
610 122 2 0.13 17.61045761486064 5.037316967503176 11.071494090941474 -1 1 1
292 59 2 0.13 32.5307129835419 16.721668432076832 3.0935713787209864 0 1 1
1403 281 2 0.13 8.595676219247464 11.466405206386638 12.743011420373856 0 2 1
3461 954 4 -0.376 8.35434958307358 6.198107959238466 9.646906395748163 0 1 0
1600 334 3 0.752 14.084497056538384 3.5786691373402966 10.211674646614119 0 1 -1
3460 954 3 0.752 8.91834427639101 7.229747408876618 9.505721070468962 0 1 0
1601 334 4 -0.376 14.657747636801178 2.7042522981231367 9.692095365063476 0 1 -1
1896 432 4 -0.376 37.178521072104914 3.564309109009743 5.949405333934709 -1 2 1
784 157 2 0.13 34.22548871106356 14.228720843208476 3.550039958835832 0 0 3
1701 367 4 -0.376 13.924648831529709 6.800921074014248 5.170343020719344 1 2 1
1602 334 4 -0.376 13.51610153448558 4.344833220547823 10.745379111836971 0 1 -1
3306 902 4 -0.376 33.10736333677201 0.7883625520558615 1.4307105728186096 0 1 0
1124 225 2 0.13 37.50859483498667 19.820675413490324 2.6700511172447476 -1 0 1
660 132 2 0.13 20.457003351096564 2.073243900849456 0.7551291418052566 1 1 0
1456 292 1 -0.52 11.985827290408604 0.7159292163829889 11.049923681431059 0 0 1
1125 225 2 0.13 39.3074155534096 19.904625568076277 2.448976346922887 -1 0 1
1494 299 2 0.13 14.375059406065862 5.398595057033901 1.4335545618199168 2 1 0
1699 367 3 0.752 13.344177969754984 6.942082674379713 4.207718824702306 1 2 1
2380 594 3 0.752 19.186678629740623 10.101360070044759 12.938484645158397 0 -1 1
2382 594 4 -0.376 18.84059155202548 9.531862647020166 11.912849593709756 0 -1 1
237 48 2 0.13 7.694247812823097 5.054902535618345 4.0703094378328935 1 1 1
2357 586 4 -0.376 11.182572433821871 3.1457374201035164 6.536809619160499 1 1 2
1940 447 4 -0.376 22.592827455565875 2.5958158141535455 6.429973665826249 0 0 1
1700 367 4 -0.376 12.90042371658614 7.297425853420131 3.1768089745062866 1 2 1
3279 893 4 -0.376 22.551053325855516 0.8123358590674212 9.250414867949228 2 1 2
3233 878 4 -0.376 19.57244442112419 4.223436996833312 13.418357567605442 -1 1 1
176 36 1 -0.52 27.59826350558244 1.3492279557137188 13.08113185174104 1 1 1
607 122 2 0.13 17.613884832088363 3.947588465659008 9.804320784323327 -1 1 1
606 122 1 -0.52 18.17572392137743 4.79749818382442 10.273757708150892 -1 1 1
608 122 2 0.13 18.14767373142418 5.703473915782689 9.612298210306156 -1 1 1
3234 878 4 -0.376 21.447125813175724 4.04811799978283 12.062338702816943 -1 1 1
3462 954 4 -0.376 9.618621360177505 8.151739067857063 9.322665312847443 0 1 0
1122 225 2 0.13 38.35915114124157 18.996627324106534 1.334697352195064 -1 0 1
161 33 1 -0.52 10.887717538313014 18.325594533962448 1.737922254722882 0 1 2
783 157 2 0.13 34.917712586428266 15.746722482719196 3.635398717731391 0 0 3
905 181 2 0.13 26.437589491448733 7.638107666865236 7.251598843793587 0 2 0
9 2 2 0.13 13.964268198247444 17.118854741227157 11.83346396236253 0 0 1
1805 402 4 -0.376 5.923055429232876 14.746824676119287 2.648362924074964 1 0 2
2690 697 4 -0.376 33.205560646878936 1.5851674283894335 11.98446450218702 1 2 0
1941 447 4 -0.376 23.389651783529267 1.8291872875457718 4.327937471986707 0 0 1
1979 460 4 -0.376 22.031940472726323 6.016413647839485 1.344146161433457 0 1 1
3071 824 4 -0.376 21.339086155301636 6.842489925075956 12.701562941542937 1 1 1
3072 824 4 -0.376 21.941293942745727 8.347555420637564 10.920415512903007 1 1 1
3070 824 3 0.752 21.677931312538927 7.540049094018835 11.809520754050382 1 1 1
189 38 2 0.13 19.76484009667079 7.496237581343805 6.476903095399092 1 1 0
2770 724 3 0.752 24.082448248627585 6.113473627015829 5.942737801355644 1 1 0
2197 533 3 0.752 22.53315402532608 15.766279826844825 12.459177132975237 1 3 1
2772 724 4 -0.376 24.289064940129546 6.853154309936904 5.045369090859032 1 1 0
2771 724 4 -0.376 24.106052267787796 5.358590294628756 6.759549755751875 1 1 0
190 38 2 0.13 20.267556350823643 8.370558336807147 4.995668687497896 1 1 0
2270 557 4 -0.376 25.92275313616632 2.3409286624639893 4.278780246341815 1 1 0
2260 554 3 0.752 19.01174563559022 1.776739019566428 10.45749544443238 1 1 1
2311 571 3 0.752 25.625884821573344 3.421343709315256 8.808252145459882 1 1 2
2312 571 4 -0.376 26.519821653468917 3.7690698152335766 9.484526139380293 1 1 2
901 181 1 -0.52 26.941628440512027 7.954360561673802 6.257453673261019 0 2 0
1715 372 4 -0.376 25.498113115727843 6.771967497053656 12.350066409326027 0 1 2
3498 966 4 -0.376 27.940571353903444 10.089956415400152 9.10097648733269 1 1 0
1286 258 1 -0.52 7.880351959634256 8.464585213518095 1.0826302768334517 0 1 2
624 125 2 0.13 5.177700643869794 7.358176996699356 12.956124508814764 0 0 2
1895 432 4 -0.376 38.54166806031613 3.0964401002433446 7.747033332187445 -1 2 1
3456 952 4 -0.376 38.41857034796527 2.398043381159096 4.104393031676484 -1 2 0
164 33 2 0.13 10.024892866360453 17.812238239926888 1.3394714209137537 0 1 2
3496 966 3 0.752 26.924660267420116 10.673991278628414 8.672401730181521 1 1 0
2998 800 3 0.752 27.699748518575827 9.277444588518344 11.412061263142537 0 1 2
1714 372 3 0.752 24.964821408097503 7.033204812853638 13.354652936755015 0 1 2
2999 800 4 -0.376 28.857917783797255 9.341717131691624 11.313252570150501 0 1 2
3000 800 4 -0.376 26.537451023763637 9.26973678132693 11.50716442850563 0 1 2
944 189 2 0.13 27.422748839520573 4.119340836993496 6.034692127850616 -1 3 1
2986 796 3 0.752 25.115631490418057 7.792885632952665 1.192193603436834 -1 0 2
2988 796 4 -0.376 25.26182460845521 6.907008073810396 1.985173298330935 -1 0 2
2540 647 4 -0.376 28.252982693050082 6.830890383077272 13.10558111853947 -1 -1 0
3497 966 4 -0.376 26.004636528240912 11.100142835820039 8.171971435519517 1 1 0
1901 434 4 -0.376 11.470817439913576 19.043364303598413 4.645534078045616 1 1 0
1399 280 2 0.13 17.854759062473658 7.900629488173903 1.0799701354219446 0 1 2
240 48 2 0.13 9.148816709953088 3.8692348946339976 4.426250745423526 1 1 1
942 189 2 0.13 29.19807076426955 3.963068373925511 6.280238314294423 -1 3 1
2969 790 4 -0.376 16.010417550362035 18.201443253694375 4.230590585503936 0 0 0
945 189 2 0.13 28.334621223939102 5.3630981842075665 5.773004919302903 -1 3 1
943 189 2 0.13 28.273754378050903 4.722726097759134 7.451401423420667 -1 3 1
51 11 1 -0.52 22.13654660714077 9.361658996666273 2.4807968130490727 0 2 1
55 11 2 0.13 22.663756292472122 8.459069005714799 2.2327905723181445 0 2 1
52 11 2 0.13 21.42210962845365 9.129318515686192 3.2372471390735367 0 2 1
941 189 1 -0.52 28.26870482057122 4.499027330838862 6.389371739848308 -1 3 1
53 11 2 0.13 22.656185613463034 10.13161983217804 2.9491427326348774 0 2 1
2271 557 4 -0.376 27.017081605809803 2.9247646586495137 2.269062895171854 1 1 0
54 11 2 0.13 21.38553437088178 9.73866356331946 1.7227367963142426 0 2 1
235 47 2 0.13 38.96682191993306 14.161917489403216 1.4186947831686303 1 1 1
2313 571 4 -0.376 24.683303687294153 3.00883875668702 8.262172107067178 1 1 2
903 181 2 0.13 27.473826556321914 8.778428390922421 6.499510485475622 0 2 0
2269 557 3 0.752 26.43738197455188 2.5643131715579583 3.219211354562922 1 1 0
2539 647 3 0.752 29.244000490798342 6.138523534717464 13.122911106793993 -1 -1 0
902 181 2 0.13 26.349190449988658 7.898663266224869 5.196417057639542 0 2 0
2719 707 3 0.752 28.075251550934908 8.91270256136896 1.3911868788851995 0 0 0
2586 662 4 -0.376 31.011322348600014 1.3054679341414213 7.0573548913133 0 1 2
659 132 2 0.13 19.13787433712973 1.3789167432338858 1.6009122135810387 1 1 0
1048 210 2 0.13 27.361285284227932 19.983824431069372 1.8377099598201114 0 1 2
962 193 2 0.13 25.187769799679383 8.624105741318496 8.789345706431913 1 0 0
3125 842 4 -0.376 24.162934384788585 16.577965720743855 3.89936390036682 0 1 1
961 193 1 -0.52 24.281637898503387 7.99032612429216 8.65436600532825 1 0 0
963 193 2 0.13 23.749471470883286 7.639744643598462 9.477165259909452 1 0 0
2753 718 4 -0.376 23.014407805620255 11.759679626483623 1.1098631316026502 0 1 0
2752 718 3 0.752 23.821806114495768 11.820384169657773 1.7100349357045914 0 1 0
294 59 2 0.13 31.826462769852434 18.076431641912873 3.602283562183419 0 1 1
2541 647 4 -0.376 30.175561761494027 5.501026797220817 13.120261959391438 -1 -1 0
1806 402 4 -0.376 5.640284038347399 16.87153384444827 1.7930766013117536 1 0 2
904 181 2 0.13 27.691607092156687 7.298604372123578 5.995762162830882 0 2 0
3443 948 4 -0.376 11.105718634253307 9.833227082398393 1.1597423200245065 0 2 1
1598 333 4 -0.376 32.83468514952129 12.772773243652745 1.5565653485105662 0 1 2
3597 999 4 -0.376 1.3482366217721478 3.906348042211864 11.848633621490587 0 -1 0
3595 999 3 0.752 1.7252811047352838 2.9319032767106123 11.190781260324993 0 -1 0
3596 999 4 -0.376 2.1993971059300943 2.027025278335291 10.601097540050246 0 -1 0
1980 460 4 -0.376 23.32347849935404 5.350107790590015 3.1840025918634853 0 1 1
2409 603 4 -0.376 34.374328158294944 3.866666913981539 7.187706128903847 -1 1 1
321 65 1 -0.52 28.734457070167682 2.067822094535361 9.857547084923159 1 2 1
325 65 2 0.13 28.253036760668024 2.919781246207693 10.37909888782613 1 2 1
2590 664 3 0.752 30.382370710721208 9.13891907298285 7.90829613133944 1 1 1
2591 664 4 -0.376 30.20399833432558 10.292031510857564 7.766439162630578 1 1 1
6 2 1 -0.52 13.587578726653982 17.80929552427865 12.534250924213556 0 0 1
2592 664 4 -0.376 30.64490595731196 8.008761048972058 8.129693146900443 1 1 1
2428 610 3 0.752 28.122460732908998 6.3384639172663215 10.385407583321335 0 0 1
2429 610 4 -0.376 27.058094761395964 6.963924438601674 10.249768370605826 0 0 1
323 65 2 0.13 29.070623075805305 2.357788284168647 8.828986907448227 1 2 1
3454 952 3 0.752 38.73395784048138 2.7799718879994155 3.1426036209209345 -1 2 0
322 65 2 0.13 28.042291359886214 1.2810348909292375 9.790527630640993 1 2 1
2833 745 3 0.752 35.02409010439516 2.3684820157210513 10.100884496383422 0 1 2
324 65 2 0.13 29.648699642900077 1.8815337592117145 10.457528380676264 1 2 1
3455 952 4 -0.376 38.74015589479653 3.0516908230863407 1.9434690867437363 -1 2 0
1915 439 3 0.752 3.5057943976788075 19.839524799413258 1.0720861218403925 1 0 2
2261 554 4 -0.376 18.27877164588582 1.3953656498579883 9.680385709209133 1 1 1
3452 951 4 -0.376 38.10783443953741 6.566078483644055 13.359446052465584 -1 0 2
2966 789 4 -0.376 31.356255105863177 5.875985760601625 5.3949410111410705 0 -1 2
2965 789 3 0.752 32.041138419465895 6.557550839977887 4.609005056485513 0 -1 2
1635 345 4 -0.376 34.24190986941289 6.657999940186524 13.32705586800485 -2 0 1
2288 563 4 -0.376 33.83711598781812 10.81471969617567 3.882136485073983 0 0 2
2289 563 4 -0.376 33.02894072813342 9.151208988661807 5.3960517875824126 0 0 2
2967 789 4 -0.376 32.5629771225329 7.186255302893058 3.8696427581148325 0 -1 2
2287 563 3 0.752 33.40512542535593 10.066158611153535 4.60078740887092 0 0 2
1287 258 2 0.13 7.591234478224142 7.9482378111830805 2.0082193583898036 0 1 2
2407 603 3 0.752 33.98838471464357 3.6594710333008846 6.118300682148445 -1 1 1
2835 745 4 -0.376 35.22126547853517 3.084345086624925 11.010869036537942 0 1 2
1553 318 4 -0.376 38.55905403328252 8.798338639359871 9.252826623716095 0 1 2
1068 214 2 0.13 0.8560191756250051 10.970619235565541 2.6329283880384247 1 1 1
2170 524 3 0.752 31.73271385064561 3.517321623240689 9.107305371443074 -1 1 0
2172 524 4 -0.376 32.21394614973268 2.3993936886541642 9.45436754514984 -1 1 0
900 180 2 0.13 31.939619348932037 19.256576814368408 9.85864260668331 -2 2 1
561 113 1 -0.52 36.86319438402347 7.497329969058095 7.305300581276087 -2 1 1
1552 318 3 0.752 38.39442660222572 7.778280678323536 9.861906204710658 0 1 2
1554 318 4 -0.376 38.17418286764499 6.9809957936348095 10.537802557702335 0 1 2
2703 701 4 -0.376 36.12737348223368 5.298002870622339 3.7618084631286814 -1 1 0
2171 524 4 -0.376 31.55694659364942 4.630860433237604 8.786598222525154 -1 1 0
2702 701 4 -0.376 35.05657429281263 3.3802694570695087 2.9872350331296733 -1 1 0
2701 701 3 0.752 35.667874634165244 4.384666114236776 3.214191477348314 -1 1 0
562 113 2 0.13 36.20494334844007 7.581719626456463 8.272018262481708 -2 1 1
2408 603 4 -0.376 33.62376761017826 3.571286203969345 5.021241915500446 -1 1 1
10 2 2 0.13 14.30640918574723 18.161358158978587 13.290074100194223 0 0 1
2834 745 4 -0.376 34.958869115915576 1.4203496181891628 9.450755315414703 0 1 2
1808 403 4 -0.376 30.884985679722966 9.121672464073011 2.129388737031915 0 1 2
565 113 2 0.13 37.5882350176755 8.369134647738221 7.1461784033352584 -2 1 1
3050 817 4 -0.376 4.383414733157748 0.768251007197901 1.243154426291374 1 0 1
1633 345 3 0.752 33.58187224562397 6.109758362969917 12.559270875096107 -2 0 1
1634 345 4 -0.376 32.94745406791354 5.594470030134465 11.722501843061053 -2 0 1
356 72 1 -0.52 11.140175870762489 6.397418654711677 12.754528615311452 1 2 2
1450 290 2 0.13 37.63758100212401 9.838632890179923 12.1796043211252 0 0 1
3277 893 3 0.752 23.69777066409967 0.7673976740963724 9.385834118528834 2 1 2
563 113 2 0.13 36.27389323721678 7.8199964629856495 6.440331351725464 -2 1 1
564 113 2 0.13 37.10383327629418 6.519837642501227 6.895416334073689 -2 1 1
1523 308 4 -0.376 31.9634218281978 10.801922990023652 10.128332013375491 0 2 1
2234 545 4 -0.376 33.94787196136541 5.9063172088711235 8.113422528745776 0 1 0
1978 460 3 0.752 22.66216571737038 5.746734078930544 2.373364899693618 0 1 1
1580 327 4 -0.376 16.236419273753 6.120037432510495 6.131450328700416 0 1 0
3579 993 4 -0.376 18.256625099419338 18.482323150027526 10.930108347033613 1 2 2
236 48 1 -0.52 8.69713798248466 4.526980298888254 3.5887749652098853 1 1 1
358 72 2 0.13 11.260276863414514 7.116798885106216 11.819072216936343 1 2 2
3382 928 3 0.752 27.877892562389253 5.677009438149728 1.6715121158220139 0 2 2
1807 403 3 0.752 31.02591769258933 9.039666155963886 1.0108694152675421 0 1 2
2233 545 3 0.752 34.1219628510901 6.724611770943258 8.902432787490744 0 1 0
658 132 2 0.13 20.626789779897035 1.8970783754950482 2.5827731050573615 1 1 0
293 59 2 0.13 30.769721440278136 16.827823851808517 2.821081284446658 0 1 1
3324 908 4 -0.376 30.881689533879907 3.0410848949679714 4.455079949469441 -1 1 2
3014 805 4 -0.376 3.6177086937464793 18.04424788462249 13.253692430894596 0 1 0
3323 908 4 -0.376 30.31445533899395 3.7427901294969086 2.2824884345691703 -1 1 2
1894 432 3 0.752 37.872404139264034 3.271501537606256 6.865773695162249 -1 2 1
1320 264 2 0.13 8.312185059359257 1.740356643582892 2.8951007826401507 -1 0 2
1314 263 2 0.13 11.882754716766922 10.242282088040765 6.078769804542728 1 1 2
1311 263 1 -0.52 12.560589957915896 10.634849082745363 5.2731827544493335 1 1 2
1315 263 2 0.13 12.24338507337902 11.676181114325765 5.156463181527437 1 1 2
334 67 2 0.13 6.8322199644003625 8.864029611682222 4.016542465880438 0 1 2
3394 932 3 0.752 5.554254851520688 14.468243101675595 7.424652984301448 2 1 0
3396 932 4 -0.376 4.704498786795124 15.20000431191179 7.067558010821149 2 1 0
331 67 1 -0.52 5.9775364765783685 9.511656954337072 3.788788409213607 0 1 2
333 67 2 0.13 5.6279651140630875 9.85982234792055 4.798642933135637 0 1 2
335 67 2 0.13 5.308139144896437 8.980185199528503 3.121703093652509 0 1 2
332 67 2 0.13 6.309348176252893 10.330775511350446 3.2925834646183736 0 1 2
1180 236 2 0.13 39.36621673037675 19.600981341043294 5.153418747551857 0 2 0
1738 380 3 0.752 8.281481446731124 18.909294671935886 3.6765720804523823 1 1 3
3265 889 3 0.752 8.517867414183804 12.740654718518932 5.127123702651669 2 0 2
1179 236 2 0.13 38.68162548992571 19.558949568410235 6.560268073873101 0 2 0
994 199 2 0.13 7.880903362353144 18.107516368545063 7.280984578399932 1 0 1
3267 889 4 -0.376 7.657178689661469 12.641272004189554 4.367999427632656 2 0 2
3438 946 4 -0.376 38.23221933888695 15.198933302196934 7.751309228770132 0 1 2
1885 429 3 0.752 4.038174034349614 13.546402299735679 11.057297429710328 1 1 0
1887 429 4 -0.376 3.76641540175804 13.276035689388301 9.92813809296379 1 1 0
1886 429 4 -0.376 4.278132583725085 14.070160069113333 12.085354768696668 1 1 0
2258 553 4 -0.376 9.747453546624195 17.91728898321438 9.00800436218325 1 1 0
2257 553 3 0.752 10.700310960192489 18.46781734298114 9.301352440003324 1 1 0
2259 553 4 -0.376 11.72531804570445 18.98019777880304 9.715493271154754 1 1 0
1019 204 2 0.13 3.3386932928729367 13.723512223391078 3.359688965562448 1 1 1
2012 471 4 -0.376 7.928315611803706 10.19804001257867 6.84181492152896 0 0 0
2449 617 3 0.752 27.452856320279178 19.746821539791746 4.474253786306007 -1 0 3
1783 395 3 0.752 29.299825459262493 14.794931636895251 9.996703116797962 0 1 1
1766 389 4 -0.376 7.888286562553048 14.282470202729128 9.66513358290103 -1 1 0
1765 389 3 0.752 8.039670325212331 15.11429926564963 8.808259713403615 -1 1 0
1176 236 1 -0.52 0.8654914354478334 19.610624816775605 6.112273268266777 1 2 0
295 59 2 0.13 31.334577492391876 16.502778200433667 4.5193643335326925 0 1 1
729 146 2 0.13 3.0261950832369418 17.000898618333057 1.7364645199507407 1 1 2
1767 389 4 -0.376 8.509585792688743 15.878575021603297 8.108451904086895 -1 1 0
1177 236 2 0.13 1.3288958964607684 18.613925208668224 6.203800832598168 1 2 0
2733 711 4 -0.376 20.682424593752316 18.63255052873791 2.1477563086801066 0 1 0
45 9 2 0.13 14.67746373857387 7.857114927817188 10.679118529684864 -1 2 1
1942 448 3 0.752 5.584215884866914 17.379506050521577 9.640141387362137 2 0 0
1944 448 4 -0.376 5.674824987828043 16.217918291937714 9.446024186987938 2 0 0
1943 448 4 -0.376 5.633180752512082 18.51233981464158 10.124502122836635 2 0 0
2451 617 4 -0.376 28.11206486738239 18.973685082077086 3.8656408012376704 -1 0 3
2792 731 4 -0.376 5.270965616612713 18.124223466758124 4.5372853093239565 1 1 1
2793 731 4 -0.376 3.140763627293416 17.793453675005495 5.32915276553158 1 1 1
2791 731 3 0.752 4.172640113800421 18.091087018908013 4.880642449295836 1 1 1
1549 317 3 0.752 8.297889287592488 19.12262449841116 13.122212156347693 1 1 0
2011 471 3 0.752 7.806815840845267 10.856456637265255 7.845665203627679 0 0 0
238 48 2 0.13 9.499043791876954 5.119127308135359 3.1808037558774505 1 1 1
1551 317 4 -0.376 8.958225122841414 19.608051509912993 12.258130576536118 1 1 0
179 36 2 0.13 28.679362299948483 0.8268247376974764 13.012444592548245 1 1 1
3457 953 3 0.752 10.355982171010458 12.617448779451164 2.6363304911257415 2 1 1
2715 705 4 -0.376 9.641417918872655 15.743089474812134 11.068962450083724 0 1 1
472 95 2 0.13 39.1674561593299 6.014126671037491 1.6773141989786209 0 1 2
995 199 2 0.13 6.0916428562310365 18.754101659092186 7.526819897781617 1 0 1
2720 707 4 -0.376 27.99182465598402 8.994702376321783 2.57339117451182 0 0 0
991 199 1 -0.52 7.031966899073258 18.784524252400534 6.964050043286438 1 0 1
1740 380 4 -0.376 8.721228369900809 19.204056656033433 4.743196168849848 1 1 3
3266 889 4 -0.376 9.2797017964368 12.988134110655768 5.952344141803386 2 0 2
1016 204 1 -0.52 3.639158896544122 12.823912183391768 2.962357057105754 1 1 1
1020 204 2 0.13 4.647181525812475 12.880835165009163 2.9052510290239204 1 1 1
1017 204 2 0.13 3.114218092786394 12.588391552927527 2.010702912108427 1 1 1
730 146 2 0.13 2.2167097813356342 18.07377521607144 3.0533186617673342 1 1 2
1018 204 2 0.13 3.365535029139862 12.150013131222902 3.741310281769622 1 1 1
2080 494 3 0.752 1.6984824252427944 15.609263659208786 9.745064136306866 0 0 1
2714 705 4 -0.376 11.352528114725388 15.09151322031903 9.54879427510802 0 1 1
992 199 2 0.13 6.764685677560558 18.390353258266014 5.872130335889038 1 0 1
2082 494 4 -0.376 2.779026633170285 15.915458853343123 9.453662333387223 0 0 1
2081 494 4 -0.376 39.33158488889114 15.654472191452182 10.085941045154945 -1 0 1
2713 705 3 0.752 10.419205191810702 15.37664882989396 10.26402423667879 0 1 1
2842 748 3 0.752 6.229464336318217 16.628820801822254 12.69959917663257 1 2 2
3083 828 4 -0.376 36.10596819154274 13.881640537614306 5.982875879996301 -1 1 1
3362 921 4 -0.376 13.319048010571453 17.96281775292697 7.422800769904141 0 0 0
44 9 2 0.13 15.301308339391538 6.3238128761920365 11.289097003549468 -1 2 1
1446 290 1 -0.52 37.29575771314025 9.766308853411982 13.26652533354747 0 0 1
239 48 2 0.13 8.293426039339003 3.808296943164496 2.798000149656757 1 1 1
1402 281 2 0.13 7.783034094720801 11.026152714809326 11.327270732062207 0 2 1
471 95 1 -0.52 0.6244617475790761 6.274255467937549 0.6216000717076732 1 1 2
753 151 2 0.13 12.38154637065345 10.086307802029486 10.36498577054557 0 1 0
2888 763 4 -0.376 4.864119027015305 1.6171026038712906 9.777255556941942 2 1 -1